/*--------------------------------*- C++ -*----------------------------------*\
| =========                 |                                                 |
| \\      /  F ield         | OpenFOAM: The Open Source CFD Toolbox           |
|  \\    /   O peration     | Version:  2.3.1                                 |
|   \\  /    A nd           | Web:      www.OpenFOAM.org                      |
|    \\/     M anipulation  |                                                 |
\*---------------------------------------------------------------------------*/
FoamFile {
  version     2.0;
  format      ascii;
  class       volScalarField;
  object      p;
}
// * * * * * * * * * * * * * * * * * * * * * * * * * * * * * * * * * * * * * //

dimensions      [1 -1 -2 0 0 0 0];

internalField   uniform 101325;

boundaryField {

     porousMat_top
    {
        type            zeroGradient;
    }

    porousMat_to_upwindTube
    {
    
    type            fixedValueToNbrValue;
    nbr             p_rgh;
    value 	    $internalField;
 
    }
    porousMat_to_downwindTube
    {
    type            fixedValueToNbrValue;
    nbr             p_rgh;
    value 	    $internalField;
    }

    porousMatwedge_pos
    {
    type            wedge;
    }

    porousMatwedge_neg
    {
    type            wedge;
    }
     emptycenter1
    {
    type           empty;
    }
}






}


// ************************************************************************* //
