/*--------------------------------*- C++ -*----------------------------------*\
| =========                 |                                                 |
| \\      /  F ield         | OpenFOAM: The Open Source CFD Toolbox           |
|  \\    /   O peration     | Version:  5.0                                   |
|   \\  /    A nd           | Web:      www.OpenFOAM.org                      |
|    \\/     M anipulation  |                                                 |
\*---------------------------------------------------------------------------*/
FoamFile {
  version     2.0;
  format      ascii;
  class       volScalarField;
  location    "0";
  object      rho_s;
}
// * * * * * * * * * * * * * * * * * * * * * * * * * * * * * * * * * * * * * //

dimensions      [1 -3 0 0 0 0 0];

internalField   uniform 160;

boundaryField
{
     porousMat_top
    {
        type            zeroGradient;
    }
    porousMat_to_upwindTube
    {  
        type            zeroGradient;
    }
    porousMat_to_downwindTube
    {  
        type            zeroGradient;
    }




    porousMatwedge_pos
    {
    type            wedge;
    }

    porousMatwedge_neg
    {
    type            wedge;
    }
     emptycenter1
    {
    type           empty;
    }
}










// ************************************************************************* //
