VARIABLES = "X", "Y"
ZONE N=5, E=3, DATAPACKING=POINT, ZONETYPE=FETRIANGLE
1.0 1.0
2.0 3.0
2.5 1.0
3.5 5.0
4.0 1.0
1 2 3
3 2 4
3 5 4
