TITLE     = "vol-for-blayer.fu"
VARIABLES = "xw (m)"
"yw (m)"
"zw (m)"
"p"
"k"
ZONE T="zone 1"
 STRANDID=0, SOLUTIONTIME=0
 I=1, J=1, K=1, ZONETYPE=Ordered
 DATAPACKING=BLOCK
 DT=(DOUBLE DOUBLE DOUBLE DOUBLE DOUBLE)
 0 0 0 10 100
