TITLE     = "MSL-half at time = 2000"
VARIABLES = "X"
"Y"
"Z"
"qw"
"pw"
"V7"
ZONE T="ZONE 001"
 STRANDID=1, SOLUTIONTIME=2000
 Nodes=10736, Elements=21004, ZONETYPE=FETriangle
 DATAPACKING=BLOCK
 VARLOCATION=([4-6]=CELLCENTERED)
 DT=(SINGLE SINGLE SINGLE SINGLE SINGLE SINGLE )
 3.173939884E-01 2.893840075E-01 2.607150078E-01 2.321559936E-01 2.039580047E-01
 1.762949973E-01 1.492940038E-01 1.230299994E-01 9.762399644E-02 7.302600145E-02
 5.065799877E-02 3.297999874E-02 1.966200024E-02 8.959619999E-01 8.932939768E-01
 8.906049728E-01 8.878610134E-01 8.850629926E-01 8.822119832E-01 8.793110251E-01
 8.763620257E-01 8.733659983E-01 8.703280091E-01 8.672490120E-01 8.641319871E-01
 8.609799743E-01 8.577950001E-01 8.545809984E-01 8.513410091E-01 8.480769992E-01
 8.447920084E-01 8.414899707E-01 8.381729722E-01 8.348450065E-01 8.315079808E-01
 8.281649947E-01 8.248190284E-01 8.214730024E-01 8.181310296E-01 8.147950172E-01
 8.114690185E-01 8.081539869E-01 8.048549891E-01 8.015729785E-01 7.983130217E-01
 7.950760126E-01 7.918660045E-01 7.886859775E-01 7.855380177E-01 7.824249864E-01
 7.793499827E-01 7.763149738E-01 7.733240128E-01 7.703779936E-01 7.674810290E-01
 7.646350265E-01 7.618420124E-01 7.591050267E-01 7.564259768E-01 7.538059950E-01
 7.512500286E-01 7.487570047E-01 7.463309765E-01 7.439730167E-01 7.416849732E-01
 7.394679785E-01 7.373239994E-01 7.352539897E-01 7.332590222E-01 7.313399911E-01
 7.294989824E-01 7.277370095E-01 7.260540128E-01 7.244510055E-01 7.229310274E-01
 7.214940190E-01 7.201470137E-01 7.188540101E-01 7.175390124E-01 7.159960270E-01
 7.141969800E-01 7.121009827E-01 7.096670270E-01 7.068449855E-01 7.035840154E-01
 6.998249888E-01 6.955080032E-01 6.905649900E-01 6.849300265E-01 6.785299778E-01
 6.712909937E-01 6.631389856E-01 6.540009975E-01 6.438019872E-01 6.324740052E-01
 6.199520230E-01 6.061800122E-01 5.911149979E-01 5.747259855E-01 5.570039749E-01
 5.379649997E-01 5.176470280E-01 4.960840046E-01 4.733470082E-01 4.495239854E-01
 4.247260094E-01 3.990730047E-01 3.726589978E-01 3.455289900E-01 8.932939768E-01
 8.959619999E-01 8.906049728E-01 8.878610134E-01 8.850629926E-01 8.822119832E-01
 8.793110251E-01 8.763620257E-01 8.733659983E-01 8.703280091E-01 8.672490120E-01
 8.641319871E-01 8.609790206E-01 8.577950001E-01 8.545809984E-01 8.513410091E-01
 8.480769992E-01 8.447920084E-01 8.414899707E-01 8.381729722E-01 8.348450065E-01
 8.315070271E-01 8.281639814E-01 8.248190284E-01 8.214730024E-01 8.181310296E-01
 8.147950172E-01 8.114680052E-01 8.081539869E-01 8.048549891E-01 8.015729785E-01
 7.983130217E-01 7.950760126E-01 7.918660045E-01 7.886859775E-01 7.855380177E-01
 7.824249864E-01 7.793499827E-01 7.763159871E-01 7.733240128E-01 7.703790069E-01
 7.674819827E-01 7.646350265E-01 7.618420124E-01 7.591050267E-01 7.564259768E-01
 7.538070083E-01 7.512500286E-01 7.487570047E-01 7.463309765E-01 7.439730167E-01
 7.416849732E-01 7.394679785E-01 7.373239994E-01 7.352539897E-01 7.332590222E-01
 7.313410044E-01 7.294999957E-01 7.277370095E-01 7.260540128E-01 7.244510055E-01
 7.229310274E-01 7.214949727E-01 7.201470137E-01 7.188529968E-01 7.175390124E-01
 7.159960270E-01 7.141969800E-01 7.121009827E-01 7.096660137E-01 7.068439722E-01
 7.035819888E-01 6.998230219E-01 6.955040097E-01 6.905609965E-01 6.849240065E-01
 6.785230041E-01 6.712819934E-01 6.631280184E-01 6.539869905E-01 6.437849998E-01
 6.324539781E-01 6.199280024E-01 6.061519980E-01 5.910829902E-01 5.746889710E-01
 5.569620132E-01 5.379189849E-01 5.175979733E-01 4.960319996E-01 4.732919931E-01
 4.494679868E-01 3.990199864E-01 3.726109862E-01 3.454909921E-01 2.898109853E-01
 3.173069954E-01 2.611320019E-01 2.325969934E-01 2.044299990E-01 1.768099964E-01
 1.498730034E-01 1.236869991E-01 9.838700294E-02 7.389199734E-02 5.155000091E-02
 3.385699913E-02 2.057399973E-02 1.116999984E-02 5.131999962E-03 1.893999986E-03
 9.059999720E-04 1.890999964E-03 5.123000126E-03 1.114999969E-02 2.053900063E-02
 3.380199894E-02 5.147000030E-02 7.378800213E-02 9.828600287E-02 1.235869974E-01
 1.497769952E-01 1.767179966E-01 2.043440044E-01 2.325199991E-01 2.610650063E-01
 2.897529900E-01 3.172790110E-01 2.902500033E-01 3.180060089E-01 2.616930008E-01
 2.333170027E-01 2.053479999E-01 1.779520065E-01 1.512739956E-01 1.253879964E-01
 1.004510000E-01 7.637000084E-02 5.426499993E-02 3.658699989E-02 2.334699966E-02
 1.395499986E-02 7.919999771E-03 4.674000200E-03 3.682000097E-03 4.670999944E-03
 7.907999679E-03 1.392900012E-02 2.330200002E-02 3.651899844E-02 5.416699871E-02
 7.624799758E-02 1.003340036E-01 1.252730042E-01 1.511629969E-01 1.778459996E-01
 2.052489966E-01 2.332279980E-01 2.616159916E-01 2.901830077E-01 3.179329932E-01
 2.910749912E-01 3.186520040E-01 2.627069950E-01 2.345999926E-01 2.069360018E-01
 1.798910052E-01 1.536159962E-01 1.281999946E-01 1.038139984E-01 8.040799946E-02
 5.877900124E-02 4.112299904E-02 2.793099917E-02 1.854399964E-02 1.250599977E-02
 9.251999669E-03 8.262000047E-03 9.247000329E-03 1.248900034E-02 1.851000078E-02
 2.787600085E-02 4.104100168E-02 5.866599828E-02 8.027400076E-02 1.036859974E-01
 1.280740052E-01 1.534930021E-01 1.797740012E-01 2.068260014E-01 2.345000058E-01
 2.626189888E-01 2.909989953E-01 3.185749948E-01 2.922610044E-01 3.196249902E-01
 2.641980052E-01 2.364419997E-01 2.091879994E-01 1.826120019E-01 1.568679959E-01
 1.320780069E-01 1.083950028E-01 8.590000123E-02 6.506100297E-02 4.745500162E-02
 3.432400152E-02 2.494700067E-02 1.890500076E-02 1.564100012E-02 1.465899963E-02
 1.563400030E-02 1.888299920E-02 2.490499988E-02 3.425899893E-02 4.735999927E-02
 6.493300200E-02 8.576200157E-02 1.082589999E-01 1.319430023E-01 1.567360014E-01
 1.824849993E-01 2.090689987E-01 2.363310009E-01 2.640999854E-01 2.921749949E-01
 3.195410073E-01 2.938610017E-01 3.209489882E-01 2.661939859E-01 2.388779968E-01
 2.121219933E-01 1.861120015E-01 1.610080004E-01 1.369580030E-01 1.141109988E-01
 9.262999892E-02 7.282000035E-02 5.555700138E-02 4.248100147E-02 3.312699869E-02
 2.708400041E-02 2.381299995E-02 2.283699997E-02 2.380399965E-02 2.705699950E-02
 3.307799995E-02 4.240600020E-02 5.545099825E-02 7.268299907E-02 9.249100089E-02
 1.139679998E-01 1.368169934E-01 1.608670056E-01 1.859759986E-01 2.119919956E-01
 2.387579978E-01 2.660849988E-01 2.937650084E-01 3.208549917E-01 2.958379984E-01
 3.226110041E-01 2.686519921E-01 2.418719977E-01 2.157039940E-01 1.903470010E-01
 1.659740061E-01 1.427489966E-01 1.208430007E-01 1.004090011E-01 8.179900050E-02
 6.539700180E-02 5.235800147E-02 4.305300117E-02 3.701100126E-02 3.373499960E-02
 3.276599944E-02 3.372300044E-02 3.697900102E-02 4.299699888E-02 5.227199942E-02
 6.528100371E-02 8.166400343E-02 1.002679989E-01 1.206960008E-01 1.426019967E-01
 1.658249944E-01 1.902009994E-01 2.155639976E-01 2.417410016E-01 2.685329914E-01
 2.957299948E-01 3.225080073E-01 2.982209921E-01 3.246319890E-01 2.715759873E-01
 2.453979999E-01 2.198909968E-01 1.952659935E-01 1.717009991E-01 1.493699998E-01
 1.284680068E-01 1.091089994E-01 9.171599895E-02 7.652600110E-02 6.397099793E-02
 5.466900021E-02 4.865000024E-02 4.537300020E-02 4.441000149E-02 4.535900056E-02
 4.861199856E-02 5.460499972E-02 6.387899816E-02 7.641100138E-02 9.158600122E-02
 1.089679971E-01 1.283189952E-01 1.492179930E-01 1.715459973E-01 1.951130033E-01
 2.197420001E-01 2.452580035E-01 2.714470029E-01 2.981030047E-01 3.245179951E-01
 3.010199964E-01 3.270159960E-01 2.749859989E-01 2.494830042E-01 2.247020006E-01
 2.008620054E-01 1.781550050E-01 1.567559987E-01 1.368830055E-01 1.186020002E-01
 1.023579985E-01 8.834200352E-02 7.685200125E-02 6.797400117E-02 6.195899844E-02
 5.867300183E-02 5.770799890E-02 5.865599960E-02 6.191600114E-02 6.790500134E-02
 7.676000148E-02 8.823200315E-02 1.022299975E-01 1.184609979E-01 1.367300004E-01
 1.565990001E-01 1.779920012E-01 2.006990016E-01 2.245409936E-01 2.493309975E-01
 2.748439908E-01 3.008889854E-01 3.268899918E-01 3.042219877E-01 3.297669888E-01
 2.788459957E-01 2.540729940E-01 2.300679982E-01 2.070589960E-01 1.852499992E-01
 1.648059934E-01 1.459739953E-01 1.287509948E-01 1.135990024E-01 1.006510034E-01
 9.015800059E-02 8.210899681E-02 7.660499960E-02 7.349199802E-02 7.255800068E-02
 7.347299904E-02 7.656200230E-02 8.204200119E-02 9.007000178E-02 1.005429998E-01
 1.134729981E-01 1.286080033E-01 1.458179951E-01 1.646440029E-01 1.850789934E-01
 2.068849951E-01 2.298949957E-01 2.539069951E-01 2.786909938E-01 3.040780127E-01
 3.296279907E-01 3.078610003E-01 3.328999877E-01 2.831870019E-01 2.591809928E-01
 2.359839976E-01 2.138320059E-01 1.929440051E-01 1.734610051E-01 1.556610018E-01
 1.394619942E-01 1.253290027E-01 1.133499965E-01 1.037290022E-01 9.638600051E-02
 9.138599783E-02 8.856900036E-02 8.772499859E-02 8.855099976E-02 9.134499729E-02
 9.632100165E-02 1.036430001E-01 1.132439971E-01 1.252029985E-01 1.393170059E-01
 1.555020064E-01 1.732939929E-01 1.927649975E-01 2.136490047E-01 2.357999980E-01
 2.590020001E-01 2.830190063E-01 3.077029884E-01 3.327470124E-01 3.119040132E-01
 3.364030123E-01 2.879729867E-01 2.647779882E-01 2.424259931E-01 2.211430073E-01
 2.011819929E-01 1.826490015E-01 1.658509970E-01 1.506389976E-01 1.374530047E-01
 1.263519973E-01 1.174930036E-01 1.107629985E-01 1.061889976E-01 1.036079973E-01
 1.028309986E-01 1.035889983E-01 1.061469987E-01 1.106979996E-01 1.174089983E-01
 1.262460053E-01 1.373270005E-01 1.504919976E-01 1.656900048E-01 1.824759990E-01
 2.009939998E-01 2.209489942E-01 2.422270030E-01 2.645829916E-01 2.877889872E-01
 3.117290139E-01 3.362329900E-01 3.163639903E-01 3.402830064E-01 2.931979895E-01
 2.708359957E-01 2.493470013E-01 2.289440036E-01 2.099049985E-01 1.923100054E-01
 1.764799953E-01 1.622149944E-01 1.499039978E-01 1.395989954E-01 1.314100027E-01
 1.252080053E-01 1.209940016E-01 1.186129972E-01 1.178890020E-01 1.185929999E-01
 1.209520027E-01 1.251440048E-01 1.313260049E-01 1.394920051E-01 1.497779936E-01
 1.620649993E-01 1.763180047E-01 1.921319962E-01 2.097100019E-01 2.287379950E-01
 2.491340041E-01 2.706260085E-01 2.929979861E-01 3.161729872E-01 3.400970101E-01
 3.212389946E-01 3.445349932E-01 2.988820076E-01 2.773649991E-01 2.567569911E-01
 2.372249961E-01 2.190870047E-01 2.024080008E-01 1.874929965E-01 1.741320044E-01
 1.626269966E-01 1.530440003E-01 1.454450041E-01 1.397079974E-01 1.358029991E-01
 1.335909963E-01 1.329070032E-01 1.335709989E-01 1.357609928E-01 1.396429986E-01
 1.453610063E-01 1.529359967E-01 1.624999940E-01 1.739799976E-01 1.873299927E-01
 2.022240013E-01 2.188850045E-01 2.370059937E-01 2.565290034E-01 2.771390080E-01
 2.986629903E-01 3.210299909E-01 3.443309963E-01 3.264920115E-01 3.491480052E-01
 3.049570024E-01 2.842929959E-01 2.645739913E-01 2.459120005E-01 2.286539972E-01
 2.128729969E-01 1.988279969E-01 1.863369942E-01 1.755789965E-01 1.666550040E-01
 1.595820040E-01 1.542540044E-01 1.506170034E-01 1.485490054E-01 1.478970051E-01
 1.485269964E-01 1.505739987E-01 1.541869938E-01 1.594969928E-01 1.665450037E-01
 1.754499972E-01 1.861820072E-01 1.986639947E-01 2.126850039E-01 2.284449935E-01
 2.456810027E-01 2.643289864E-01 2.840499878E-01 3.047200143E-01 3.262650073E-01
 3.489249945E-01 3.321250081E-01 3.541310132E-01 3.114430010E-01 2.916220129E-01
 2.727879882E-01 2.549929917E-01 2.385849953E-01 2.236769944E-01 2.104499936E-01
 1.987870038E-01 1.887229979E-01 1.804040074E-01 1.738020033E-01 1.688369960E-01
 1.654369980E-01 1.634950042E-01 1.628659964E-01 1.634709984E-01 1.653919965E-01
 1.687680036E-01 1.737139970E-01 1.802909970E-01 1.885920018E-01 1.986300051E-01
 2.102860063E-01 2.234829962E-01 2.383690029E-01 2.547490001E-01 2.725270092E-01
 2.913610041E-01 3.111850023E-01 3.318800032E-01 3.538820148E-01 3.381080031E-01
 3.595249951E-01 3.183040023E-01 2.993299961E-01 2.813709974E-01 2.644380033E-01
 2.488400042E-01 2.347729951E-01 2.223200053E-01 2.114399970E-01 2.020319998E-01
 1.942699999E-01 1.880940050E-01 1.834540069E-01 1.802659929E-01 1.784339994E-01
 1.778219938E-01 1.784089953E-01 1.802179962E-01 1.833840013E-01 1.880030036E-01
 1.941549927E-01 2.018990070E-01 2.112819999E-01 2.221540064E-01 2.345750034E-01
 2.486159950E-01 2.641780078E-01 2.810919881E-01 2.990480065E-01 3.180240095E-01
 3.378430009E-01 3.592540026E-01 3.444299996E-01 3.652629852E-01 3.255099952E-01
 3.073799908E-01 2.902779877E-01 2.742049992E-01 2.594020069E-01 2.461519986E-01
 2.344409972E-01 2.242950052E-01 2.155009955E-01 2.082470059E-01 2.024569958E-01
 1.981070042E-01 1.951069981E-01 1.933729947E-01 1.927739978E-01 1.933459938E-01
 1.950580031E-01 1.980340034E-01 2.023620009E-01 2.081270069E-01 2.153619975E-01
 2.241339982E-01 2.342730016E-01 2.459519953E-01 2.591719925E-01 2.739340067E-01
 2.899860144E-01 3.070800006E-01 3.252109885E-01 3.441460133E-01 3.649699986E-01
 3.510690033E-01 3.713259995E-01 3.330270052E-01 3.157469928E-01 2.994579971E-01
 2.842290103E-01 2.702139914E-01 2.577539980E-01 2.467640042E-01 2.373030037E-01
 2.290990055E-01 2.223169953E-01 2.168840021E-01 2.127950042E-01 2.099650055E-01
 2.083179951E-01 2.077279985E-01 2.082889974E-01 2.099130005E-01 2.127189934E-01
 2.167840004E-01 2.221920043E-01 2.289550006E-01 2.371409982E-01 2.465920001E-01
 2.575510144E-01 2.699779868E-01 2.839480042E-01 2.991519868E-01 3.154279888E-01
 3.327099979E-01 3.507660031E-01 3.710120022E-01 3.580169976E-01 3.776920140E-01
 3.408240080E-01 3.244009912E-01 3.088980019E-01 2.944889963E-01 2.812690139E-01
 2.695719898E-01 2.592889965E-01 2.504679859E-01 2.428209931E-01 2.364750057E-01
 2.313710004E-01 2.275180072E-01 2.248419970E-01 2.232740074E-01 2.226909995E-01
 2.232429981E-01 2.247869968E-01 2.274380028E-01 2.312649935E-01 2.363439947E-01
 2.426709980E-01 2.503019869E-01 2.591130137E-01 2.693699896E-01 2.810299993E-01
 2.942039967E-01 3.085820079E-01 3.240649998E-01 3.404920101E-01 3.576929867E-01
 3.773570061E-01 3.652940094E-01 3.843339980E-01 3.488889933E-01 3.333419859E-01
 3.186109960E-01 3.049950004E-01 2.925699949E-01 2.816129923E-01 2.720189989E-01
 2.637839913E-01 2.566609979E-01 2.507179976E-01 2.459190041E-01 2.422789931E-01
 2.397429943E-01 2.382459939E-01 2.376700044E-01 2.382140011E-01 2.396859974E-01
 2.421949953E-01 2.458070070E-01 2.505800128E-01 2.565020025E-01 2.636109889E-01
 2.718299925E-01 2.813990116E-01 2.923240066E-01 3.047049940E-01 3.182809949E-01
 3.329850137E-01 3.485400081E-01 3.649429977E-01 3.839780092E-01 3.728969991E-01
 3.912279904E-01 3.572190106E-01 3.425250053E-01 3.285700083E-01 3.157460093E-01
 3.041459918E-01 2.939040065E-01 2.849659920E-01 2.772679925E-01 2.706199884E-01
 2.650440037E-01 2.605249882E-01 2.570819855E-01 2.546750009E-01 2.532429993E-01
 2.526730001E-01 2.532089949E-01 2.546150088E-01 2.569929957E-01 2.604059875E-01
 2.648969889E-01 2.704510093E-01 2.770839930E-01 2.847610116E-01 2.936739922E-01
 3.038710058E-01 3.154340088E-01 3.282319903E-01 3.421530128E-01 3.568530083E-01
 3.725250065E-01 3.908489943E-01 3.807229996E-01 3.983379900E-01 3.657970130E-01
 3.519519866E-01 3.388159871E-01 3.267869949E-01 3.159889877E-01 3.064329922E-01
 2.981039882E-01 2.908990085E-01 2.846840024E-01 2.794449925E-01 2.751910090E-01
 2.719309926E-01 2.696430087E-01 2.682729959E-01 2.677110136E-01 2.682380080E-01
 2.695800066E-01 2.718380094E-01 2.750650048E-01 2.792899907E-01 2.845039964E-01
 2.907019854E-01 2.978839874E-01 3.061850071E-01 3.156920075E-01 3.264440000E-01
 3.384389877E-01 3.515599966E-01 3.654150069E-01 3.803299963E-01 3.979359865E-01
 3.887380064E-01 4.056330025E-01 3.746109903E-01 3.615790009E-01 3.493050039E-01
 3.380950093E-01 3.280799985E-01 3.191919923E-01 3.114250004E-01 3.046720028E-01
 2.988469899E-01 2.939240038E-01 2.899169922E-01 2.868329883E-01 2.846570015E-01
 2.833450139E-01 2.827959955E-01 2.833090127E-01 2.845909894E-01 2.867349982E-01
 2.897849977E-01 2.937609851E-01 2.986570001E-01 3.044610023E-01 3.111859858E-01
 3.189240098E-01 3.277670145E-01 3.377330005E-01 3.489080071E-01 3.611789942E-01
 3.742110133E-01 3.883239925E-01 4.052079916E-01 3.969100118E-01 4.130710065E-01
 3.836289942E-01 3.713909984E-01 3.600629866E-01 3.496699929E-01 3.404009938E-01
 3.321399987E-01 3.248879910E-01 3.185569942E-01 3.130939901E-01 3.084709942E-01
 3.047020137E-01 3.017910123E-01 2.997260094E-01 2.984740138E-01 2.979429960E-01
 2.984380126E-01 2.996590137E-01 3.016900122E-01 3.045659959E-01 3.083019853E-01
 3.128960133E-01 3.183329999E-01 3.246339858E-01 3.318549991E-01 3.400729895E-01
 3.492920101E-01 3.596499860E-01 3.709880114E-01 3.832029998E-01 3.964760005E-01
 4.126209915E-01 4.052209854E-01 4.206059873E-01 3.927760124E-01 3.814249933E-01
 3.710280061E-01 3.614720106E-01 3.529100120E-01 3.452520072E-01 3.384729922E-01
 3.325409889E-01 3.274149895E-01 3.230809867E-01 3.195419908E-01 3.168030083E-01
 3.148539960E-01 3.136689961E-01 3.131679893E-01 3.136340082E-01 3.147859871E-01
 3.167000115E-01 3.194040060E-01 3.229089975E-01 3.272109926E-01 3.323079944E-01
 3.382090032E-01 3.449560106E-01 3.525800109E-01 3.610950112E-01 3.706150055E-01
 3.810020089E-01 3.923310041E-01 4.047650099E-01 4.201290011E-01 4.136300087E-01
 4.282000065E-01 4.020389915E-01 3.916560113E-01 3.820300102E-01 3.733400106E-01
 3.655230105E-01 3.584510088E-01 3.521429896E-01 3.466069996E-01 3.418140113E-01
 3.377720118E-01 3.344590068E-01 3.318949938E-01 3.300659955E-01 3.289510012E-01
 3.284879923E-01 3.289160132E-01 3.299970031E-01 3.317910135E-01 3.343189955E-01
 3.375979960E-01 3.416079879E-01 3.463689983E-01 3.518750072E-01 3.581520021E-01
 3.651989996E-01 3.729999959E-01 3.816440105E-01 3.911899924E-01 4.015850127E-01
 4.131509960E-01 4.276910126E-01 4.220750034E-01 4.357779920E-01 4.114210010E-01
 4.019109905E-01 3.932360113E-01 3.853420019E-01 3.781619966E-01 3.716669977E-01
 3.658550084E-01 3.607270122E-01 3.562859893E-01 3.525309861E-01 3.494560122E-01
 3.470709920E-01 3.453710079E-01 3.443349898E-01 3.439249992E-01 3.443000019E-01
 3.453010023E-01 3.469670117E-01 3.493160009E-01 3.523559868E-01 3.560760021E-01
 3.604829907E-01 3.655770123E-01 3.713540137E-01 3.778119981E-01 3.849489987E-01
 3.927980065E-01 4.014630020E-01 4.109529853E-01 4.215660095E-01 4.352340102E-01
 4.305680096E-01 4.432739913E-01 4.208819866E-01 4.122439921E-01 4.044460058E-01
 3.973509967E-01 3.908799887E-01 3.849900067E-01 3.796760142E-01 3.749629855E-01
 3.708800077E-01 3.674199879E-01 3.645879924E-01 3.623859882E-01 3.608149886E-01
 3.598659933E-01 3.595199883E-01 3.598299921E-01 3.607439995E-01 3.622789979E-01
 3.644450009E-01 3.672409952E-01 3.706640005E-01 3.747099936E-01 3.793799877E-01
 3.846589923E-01 3.905169964E-01 3.969590068E-01 4.040319920E-01 4.118160009E-01
 4.203949869E-01 4.300340116E-01 4.426879883E-01 4.389910102E-01 4.506050050E-01
 4.304319918E-01 4.228020012E-01 4.159150124E-01 4.096029997E-01 4.038290083E-01
 3.985550106E-01 3.937819898E-01 3.895199895E-01 3.857899904E-01 3.826099932E-01
 3.799969852E-01 3.779599965E-01 3.765049875E-01 3.756310046E-01 3.753339946E-01
 3.755939901E-01 3.764309883E-01 3.778479993E-01 3.798469901E-01 3.824220002E-01
 3.855639994E-01 3.892560005E-01 3.934809864E-01 3.982200027E-01 4.034610093E-01
 4.092049897E-01 4.154889882E-01 4.223470092E-01 4.299339950E-01 4.384610057E-01
 4.499639869E-01 4.474189878E-01 4.574260116E-01 4.400629997E-01 4.336110055E-01
 4.276820123E-01 4.221949875E-01 4.171119928E-01 4.124310017E-01 4.081670046E-01
 4.043439925E-01 4.009799957E-01 3.980990052E-01 3.957180083E-01 3.938519955E-01
 3.925130069E-01 3.917010128E-01 3.914200068E-01 3.916630149E-01 3.924359977E-01
 3.937369883E-01 3.955639899E-01 3.979060054E-01 4.007480145E-01 4.040740132E-01
 4.078600109E-01 4.120880067E-01 4.167360067E-01 4.217880070E-01 4.272469878E-01
 4.331470132E-01 4.395619929E-01 4.469290078E-01 4.567280114E-01 4.558329880E-01
 4.636850059E-01 4.501450062E-01 4.449230134E-01 4.400010109E-01 4.353359938E-01
 4.309400022E-01 4.268389940E-01 4.230709970E-01 4.196659923E-01 4.166530073E-01
 4.140599966E-01 4.119069874E-01 4.102100134E-01 4.089890122E-01 4.082410038E-01
 4.079819918E-01 4.081999958E-01 4.089080095E-01 4.100889862E-01 4.117439985E-01
 4.138559997E-01 4.164089859E-01 4.193809927E-01 4.227469862E-01 4.264769852E-01
 4.305419922E-01 4.349040091E-01 4.395399988E-01 4.444279969E-01 4.496099949E-01
 4.553439915E-01 4.630250037E-01 4.660080075E-01 4.691649973E-01 4.619309902E-01
 4.582749903E-01 4.543739855E-01 4.505270123E-01 4.467979968E-01 4.432629943E-01
 4.399780035E-01 4.369840026E-01 4.343200028E-01 4.320139885E-01 4.300929904E-01
 4.285730124E-01 4.274759889E-01 4.268049896E-01 4.265739918E-01 4.267739952E-01
 4.274140000E-01 4.284810126E-01 4.299690127E-01 4.318599999E-01 4.341360033E-01
 4.367710054E-01 4.397369921E-01 4.429970086E-01 4.465090036E-01 4.502179921E-01
 4.540539980E-01 4.579190016E-01 4.617109895E-01 4.649760127E-01 4.682590067E-01
 8.932920098E-01 8.959619999E-01 8.905979991E-01 8.878459930E-01 8.850370049E-01
 8.821740150E-01 8.792589903E-01 8.762940168E-01 8.732820153E-01 8.702260256E-01
 8.671280146E-01 8.639910221E-01 8.608170152E-01 8.576110005E-01 8.543729782E-01
 8.511080146E-01 8.478180170E-01 8.445069790E-01 8.411759734E-01 8.378300071E-01
 8.344709873E-01 8.311020136E-01 8.277260065E-01 8.243460059E-01 8.209649920E-01
 8.175870180E-01 8.142139912E-01 8.108479977E-01 8.074949980E-01 8.041549921E-01
 8.008329868E-01 7.975299954E-01 7.942510247E-01 7.909979820E-01 7.877740264E-01
 7.845820189E-01 7.814249992E-01 7.783049941E-01 7.752259970E-01 7.721909881E-01
 7.692009807E-01 7.662600279E-01 7.633699775E-01 7.605350018E-01 7.577559948E-01
 7.550370097E-01 7.523800135E-01 7.497869730E-01 7.472609878E-01 7.448040247E-01
 7.424179912E-01 7.401069999E-01 7.378709912E-01 7.357130051E-01 7.336360216E-01
 7.316409945E-01 7.297289968E-01 7.279040217E-01 7.261649966E-01 7.245169878E-01
 7.229589820E-01 7.214930058E-01 7.201219797E-01 7.188240290E-01 7.175269723E-01
 7.162050009E-01 7.146700025E-01 7.128880024E-01 7.108219862E-01 7.084289789E-01
 7.056620121E-01 7.024679780E-01 6.987879872E-01 6.945599914E-01 6.897140145E-01
 6.841819882E-01 6.778870225E-01 6.707540154E-01 6.627060175E-01 6.536660194E-01
 6.435610056E-01 6.323189735E-01 6.198750138E-01 6.061739922E-01 5.911719799E-01
 5.748379827E-01 5.571640134E-01 5.381579995E-01 5.178520083E-01 4.962989986E-01
 4.735699892E-01 4.497570097E-01 4.249730110E-01 3.993389904E-01 3.729499876E-01
 3.458839953E-01 8.932899833E-01 8.959619999E-01 8.905900121E-01 8.878290057E-01
 8.850100040E-01 8.821330070E-01 8.792030215E-01 8.762230277E-01 8.731930256E-01
 8.701180220E-01 8.669999838E-01 8.638409972E-01 8.606449962E-01 8.574150205E-01
 8.541520238E-01 8.508610129E-01 8.475430012E-01 8.442019820E-01 8.408409953E-01
 8.374630213E-01 8.340700269E-01 8.306670189E-01 8.272550106E-01 8.238379955E-01
 8.204180002E-01 8.169999719E-01 8.135859966E-01 8.101789951E-01 8.067820072E-01
 8.033980131E-01 8.000310063E-01 7.966830134E-01 7.933570147E-01 7.900570035E-01
 7.867850065E-01 7.835450172E-01 7.803390026E-01 7.771710157E-01 7.740430236E-01
 7.709590197E-01 7.679209709E-01 7.649319768E-01 7.619950175E-01 7.591140270E-01
 7.562900186E-01 7.535279989E-01 7.508289814E-01 7.481960058E-01 7.456319928E-01
 7.431409955E-01 7.407240272E-01 7.383859754E-01 7.361270189E-01 7.339519858E-01
 7.318639755E-01 7.298629880E-01 7.279539704E-01 7.261369824E-01 7.244189978E-01
 7.227969766E-01 7.212749720E-01 7.198550105E-01 7.185149789E-01 7.171800137E-01
 7.158259749E-01 7.144579887E-01 7.128750086E-01 7.110520005E-01 7.089499831E-01
 7.065330148E-01 7.037529945E-01 7.005649805E-01 6.969100237E-01 6.927300096E-01
 6.879550219E-01 6.825159788E-01 6.763349771E-01 6.693320274E-01 6.614260077E-01
 6.525340080E-01 6.425780058E-01 6.314809918E-01 6.191759706E-01 6.056029797E-01
 5.907160044E-01 5.744850039E-01 5.568979979E-01 5.379660130E-01 5.177189708E-01
 4.962120056E-01 4.735209942E-01 4.497439861E-01 4.249979854E-01 3.994069993E-01
 3.730930090E-01 3.461230099E-01 8.932890296E-01 8.959619999E-01 8.905829787E-01
 8.878129721E-01 8.849819899E-01 8.820919991E-01 8.791469932E-01 8.761489987E-01
 8.731020093E-01 8.700079918E-01 8.668699861E-01 8.636900187E-01 8.604720235E-01
 8.572180271E-01 8.539320230E-01 8.506150246E-01 8.472719789E-01 8.439040184E-01
 8.405150175E-01 8.371080160E-01 8.336859941E-01 8.302519917E-01 8.268079758E-01
 8.233579993E-01 8.199059963E-01 8.164529800E-01 8.130030036E-01 8.095600009E-01
 8.061270118E-01 8.027060032E-01 7.993010283E-01 7.959150076E-01 7.925500274E-01
 7.892109752E-01 7.859010100E-01 7.826219797E-01 7.793769836E-01 7.761710286E-01
 7.730050087E-01 7.698850036E-01 7.668099999E-01 7.637879848E-01 7.608180046E-01
 7.579060197E-01 7.550539970E-01 7.522659898E-01 7.495440245E-01 7.468910217E-01
 7.443119884E-01 7.418079972E-01 7.393860221E-01 7.370430231E-01 7.347880006E-01
 7.326200008E-01 7.305449843E-01 7.285619974E-01 7.266770005E-01 7.248910069E-01
 7.232059836E-01 7.216230035E-01 7.201430202E-01 7.187610269E-01 7.174130082E-01
 7.160450220E-01 7.146649957E-01 7.132689953E-01 7.116590142E-01 7.098060250E-01
 7.076749802E-01 7.052289844E-01 7.024250031E-01 6.992170215E-01 6.955500245E-01
 6.913700104E-01 6.866080165E-01 6.811980009E-01 6.750630140E-01 6.681249738E-01
 6.603000164E-01 6.515049934E-01 6.416569948E-01 6.306779981E-01 6.184939742E-01
 6.050410271E-01 5.902709961E-01 5.741509795E-01 5.566650033E-01 5.378239751E-01
 5.176590085E-01 4.962230027E-01 4.735980034E-01 4.498830140E-01 4.252009988E-01
 3.996829987E-01 3.734529912E-01 3.466260135E-01 8.932870030E-01 8.959619999E-01
 8.905760050E-01 8.877969980E-01 8.849539757E-01 8.820499778E-01 8.790900111E-01
 8.760759830E-01 8.730109930E-01 8.698980212E-01 8.667399883E-01 8.635389805E-01
 8.602989912E-01 8.570230007E-01 8.537129760E-01 8.503720164E-01 8.470020294E-01
 8.436080217E-01 8.401920199E-01 8.367570043E-01 8.333050013E-01 8.298410177E-01
 8.263660073E-01 8.228849769E-01 8.193989992E-01 8.159130216E-01 8.124290109E-01
 8.089519739E-01 8.054829836E-01 8.020259738E-01 7.985839844E-01 7.951610088E-01
 7.917590141E-01 7.883830070E-01 7.850350142E-01 7.817190289E-01 7.784379721E-01
 7.751960158E-01 7.719950080E-01 7.688400149E-01 7.657330036E-01 7.626789808E-01
 7.596809864E-01 7.567409873E-01 7.538650036E-01 7.510539889E-01 7.483140230E-01
 7.456449866E-01 7.430559993E-01 7.405459881E-01 7.381200194E-01 7.357810140E-01
 7.335330248E-01 7.313809991E-01 7.293220162E-01 7.273659706E-01 7.255089879E-01
 7.237589955E-01 7.221109867E-01 7.205690145E-01 7.191320062E-01 7.177670002E-01
 7.163969874E-01 7.150120139E-01 7.136150002E-01 7.122060061E-01 7.105860114E-01
 7.087230086E-01 7.065839767E-01 7.041339874E-01 7.013270259E-01 6.981199980E-01
 6.944599748E-01 6.902909875E-01 6.855459809E-01 6.801620126E-01 6.740610003E-01
 6.671680212E-01 6.594009995E-01 6.506760120E-01 6.409100294E-01 6.300230026E-01
 6.179400086E-01 6.045950055E-01 5.899360180E-01 5.739259720E-01 5.565500259E-01
 5.378130078E-01 5.177459717E-01 4.964039922E-01 4.738669991E-01 4.502399862E-01
 4.256469905E-01 4.002229869E-01 3.741039932E-01 3.473939896E-01 8.932870030E-01
 8.959619999E-01 8.905720115E-01 8.877859712E-01 8.849350214E-01 8.820220232E-01
 8.790500164E-01 8.760240078E-01 8.729469776E-01 8.698210120E-01 8.666489720E-01
 8.634340167E-01 8.601790071E-01 8.568869829E-01 8.535609841E-01 8.502039909E-01
 8.468179703E-01 8.434060216E-01 8.399720192E-01 8.365190029E-01 8.330489993E-01
 8.295660019E-01 8.260719776E-01 8.225709796E-01 8.190659881E-01 8.155609965E-01
 8.120570183E-01 8.085590005E-01 8.050699830E-01 8.015930057E-01 7.981320024E-01
 7.946889997E-01 7.912679911E-01 7.878730297E-01 7.845069766E-01 7.811729908E-01
 7.778739929E-01 7.746149898E-01 7.713990211E-01 7.682279944E-01 7.651090026E-01
 7.620409727E-01 7.590330243E-01 7.560830116E-01 7.531999946E-01 7.503830194E-01
 7.476379871E-01 7.449679971E-01 7.423779964E-01 7.398710251E-01 7.374489903E-01
 7.351189852E-01 7.328789830E-01 7.307389975E-01 7.286930084E-01 7.267529964E-01
 7.249150276E-01 7.231829762E-01 7.215560079E-01 7.200329900E-01 7.186139822E-01
 7.172449827E-01 7.158600092E-01 7.144629955E-01 7.130529881E-01 7.116310000E-01
 7.099959850E-01 7.081159949E-01 7.059599757E-01 7.034909725E-01 7.006670237E-01
 6.974440217E-01 6.937699914E-01 6.895899773E-01 6.848409772E-01 6.794580221E-01
 6.733679771E-01 6.664959788E-01 6.587610245E-01 6.500809789E-01 6.403729916E-01
 6.295570135E-01 6.175569892E-01 6.043050289E-01 5.897470117E-01 5.738440156E-01
 5.565770268E-01 5.379499793E-01 5.179929733E-01 4.967589974E-01 4.743280113E-01
 4.508070052E-01 4.263249934E-01 4.010199904E-01 3.750250041E-01 3.484590054E-01
 8.932859898E-01 8.959619999E-01 8.905670047E-01 8.877750039E-01 8.849160075E-01
 8.819929957E-01 8.790109754E-01 8.759739995E-01 8.728839755E-01 8.697450161E-01
 8.665590286E-01 8.633300066E-01 8.600599766E-01 8.567529917E-01 8.534110188E-01
 8.500379920E-01 8.466349840E-01 8.432070017E-01 8.397560120E-01 8.362849951E-01
 8.327969909E-01 8.292949796E-01 8.257830143E-01 8.222630024E-01 8.187400103E-01
 8.152149916E-01 8.116919994E-01 8.081750274E-01 8.046669960E-01 8.011710048E-01
 7.976909876E-01 7.942289710E-01 7.907900214E-01 7.873769999E-01 7.839930058E-01
 7.806429863E-01 7.773280144E-01 7.740539908E-01 7.708240151E-01 7.676399946E-01
 7.645080090E-01 7.614300251E-01 7.584120035E-01 7.554550171E-01 7.525650263E-01
 7.497450113E-01 7.469969988E-01 7.443280220E-01 7.417389750E-01 7.392380238E-01
 7.368209958E-01 7.345010042E-01 7.322729826E-01 7.301449776E-01 7.281169891E-01
 7.261919975E-01 7.243739963E-01 7.226619720E-01 7.210549712E-01 7.195540071E-01
 7.181490064E-01 7.167760134E-01 7.153819799E-01 7.139790058E-01 7.125629783E-01
 7.111359835E-01 7.094969749E-01 7.076119781E-01 7.054529786E-01 7.029799819E-01
 7.001540065E-01 6.969299912E-01 6.932560205E-01 6.890789866E-01 6.843360066E-01
 6.789640188E-01 6.728900075E-01 6.660400033E-01 6.583359838E-01 6.496949792E-01
 6.400380135E-01 6.292840242E-01 6.173570156E-01 6.041899920E-01 5.897259712E-01
 5.739269853E-01 5.567709804E-01 5.382590294E-01 5.184209943E-01 4.973079860E-01