TITLE     = "MSL-30s-full-surf-tec at time = 12000"
VARIABLES = "X"
"Y"
"Z"
"pw"
"Ch"
"He"
ZONE T="ZONE 001"
 STRANDID=1, SOLUTIONTIME=12000
 Nodes=20577, Elements=41150, ZONETYPE=FETriangle
 DATAPACKING=BLOCK
 VARLOCATION=([4-6]=CELLCENTERED)
 DT=(SINGLE SINGLE SINGLE SINGLE DOUBLE DOUBLE )
 3.173939884E-01 2.893840075E-01 2.897979915E-01 3.176620007E-01 2.607150078E-01
 2.611230016E-01 2.321559936E-01 2.325879931E-01 2.039580047E-01 2.044219971E-01
 1.762949973E-01 1.768040061E-01 1.492940038E-01 1.498679966E-01 1.230299994E-01
 1.236819997E-01 9.762399644E-02 9.838200361E-02 7.302600145E-02 7.388799638E-02
 5.065799877E-02 5.154699832E-02 3.297999874E-02 3.385600075E-02 1.966200024E-02
 2.057399973E-02 1.024699956E-02 1.117100008E-02 4.199999850E-03 5.133000202E-03
 9.660000214E-04 1.896000002E-03 0.000000000E+00 9.089999949E-04 9.519999730E-04
 1.894999994E-03 4.172000103E-03 5.127000157E-03 1.020400040E-02 1.115499996E-02
 1.960299909E-02 2.054500021E-02 3.290500119E-02 3.381000087E-02 5.056399852E-02
 5.147900060E-02 7.291699946E-02 7.379700243E-02 9.751600027E-02 9.829399735E-02
 1.229199991E-01 1.235940009E-01 1.491869986E-01 1.497820020E-01 1.761890054E-01
 1.767220050E-01 2.038560063E-01 2.043469995E-01 2.320609987E-01 2.325219959E-01
 2.606280148E-01 2.610659897E-01 2.892760038E-01 2.897500098E-01 3.173989952E-01
 3.175970018E-01 2.902289927E-01 3.179680109E-01 2.616769969E-01 2.333009988E-01
 2.053339928E-01 1.779389977E-01 1.512629986E-01 1.253779978E-01 1.004419997E-01
 7.636299729E-02 5.426000059E-02 3.658400103E-02 2.334599942E-02 1.395700034E-02
 7.922999561E-03 4.679000005E-03 3.687999910E-03 4.678000230E-03 7.915999740E-03
 1.393899973E-02 2.331499942E-02 3.653400019E-02 5.418299884E-02 7.626400143E-02
 1.003480032E-01 1.252849996E-01 1.511719972E-01 1.778530031E-01 2.052530050E-01
 2.332289964E-01 2.616159916E-01 2.901780009E-01 3.179109991E-01 2.910450101E-01
 3.186109960E-01 2.626810074E-01 2.345770001E-01 2.069150060E-01 1.798720062E-01
 1.535989940E-01 1.281860024E-01 1.038020030E-01 8.039700240E-02 5.877099931E-02
 4.111799970E-02 2.793000080E-02 1.854600012E-02 1.250999980E-02 9.258000180E-03
 8.270000108E-03 9.256999940E-03 1.250100043E-02 1.852400042E-02 2.789299935E-02
 4.106000066E-02 5.868799984E-02 8.029499650E-02 1.037039980E-01 1.280889958E-01
 1.535039991E-01 1.797810048E-01 2.068299949E-01 2.344989926E-01 2.626149952E-01
 2.909899950E-01 3.185540140E-01 2.922210097E-01 3.195770085E-01 2.641640007E-01
 2.364110053E-01 2.091609985E-01 1.825879961E-01 1.568460017E-01 1.320589930E-01
 1.083789989E-01 8.588600159E-02 6.505099684E-02 4.744900018E-02 3.432200104E-02
 2.494800091E-02 1.891000010E-02 1.564900018E-02 1.466799993E-02 1.564699970E-02
 1.889799908E-02 2.492300048E-02 3.427999839E-02 4.738299921E-02 6.495799869E-02
 8.578500152E-02 1.082789972E-01 1.319590062E-01 1.567479968E-01 1.824920028E-01
 2.090709955E-01 2.363290042E-01 2.640910149E-01 2.921589911E-01 3.195160031E-01
 2.938129902E-01 3.208940029E-01 2.661519945E-01 2.388419956E-01 2.120900005E-01
 1.860840023E-01 1.609829962E-01 1.369359940E-01 1.140919998E-01 9.261400253E-02
 7.280699909E-02 5.555000156E-02 4.247799888E-02 3.312800080E-02 2.708899975E-02
 2.382100001E-02 2.284800075E-02 2.381799929E-02 2.707399987E-02 3.309800103E-02
 4.242900014E-02 5.547700077E-02 7.270999998E-02 9.251499921E-02 1.139890030E-01
 1.368329972E-01 1.608790010E-01 1.859820038E-01 2.119929940E-01 2.387530059E-01
 2.660720050E-01 2.937430143E-01 3.208259940E-01 2.957839966E-01 3.225510120E-01
 2.686060071E-01 2.418310046E-01 2.156679928E-01 1.903149933E-01 1.659449935E-01
 1.427240074E-01 1.208219975E-01 1.003910005E-01 8.178500086E-02 6.538800150E-02
 5.235299841E-02 4.305399954E-02 3.701499850E-02 3.374300152E-02 3.277799860E-02
 3.373799846E-02 3.699700162E-02 4.301900044E-02 5.229699984E-02 6.530799717E-02
 8.169099689E-02 1.002919972E-01 1.207159981E-01 1.426170021E-01 1.658349931E-01
 1.902060062E-01 2.155620009E-01 2.417329997E-01 2.685160041E-01 2.957040071E-01
 3.224749863E-01 2.981640100E-01 3.245700002E-01 2.715269923E-01 2.453549951E-01
 2.198520005E-01 1.952310055E-01 1.716700047E-01 1.493429989E-01 1.284440011E-01
 1.090890020E-01 9.170000255E-02 7.651499659E-02 6.396599859E-02 5.466900021E-02
 4.865400121E-02 4.538200051E-02 4.442299902E-02 4.537399858E-02 4.863100126E-02
 5.462700129E-02 6.390500069E-02 7.643599808E-02 9.161099792E-02 1.089899987E-01
 1.283369958E-01 1.492329985E-01 1.715549976E-01 1.951159984E-01 2.197390050E-01
 2.452470064E-01 2.714279890E-01 2.980749905E-01 3.244830072E-01 3.009620011E-01
 3.269540071E-01 2.749350071E-01 2.494380027E-01 2.246609926E-01 2.008250058E-01
 1.781229973E-01 1.567279994E-01 1.368580014E-01 1.185820028E-01 1.023420021E-01
 8.833099902E-02 7.684600353E-02 6.797300279E-02 6.196299940E-02 5.868199840E-02
 5.772000179E-02 5.867199972E-02 6.193599850E-02 6.792700291E-02 7.678300142E-02
 8.825500309E-02 1.022529975E-01 1.184810027E-01 1.367480010E-01 1.566119939E-01
 1.780000031E-01 2.007009983E-01 2.245370001E-01 2.493180037E-01 2.748239934E-01
 3.008599877E-01 3.268539906E-01 3.041650057E-01 3.297069967E-01 2.787950039E-01
 2.540270090E-01 2.300260067E-01 2.070219964E-01 1.852169931E-01 1.647769958E-01
 1.459479928E-01 1.287299991E-01 1.135829985E-01 1.006390005E-01 9.015200287E-02
 8.210700005E-02 7.660800219E-02 7.349900156E-02 7.256899774E-02 7.348799706E-02
 7.658000290E-02 8.206199855E-02 9.009099752E-02 1.005650014E-01 1.134930030E-01
 1.286270022E-01 1.458330005E-01 1.646550000E-01 1.850849986E-01 2.068859935E-01
 2.298890054E-01 2.538940012E-01 2.786700130E-01 3.040480018E-01 3.295930028E-01
 3.078069985E-01 3.328430057E-01 2.831369936E-01 2.591359913E-01 2.359430045E-01
 2.137939930E-01 1.929109991E-01 1.734320074E-01 1.556359977E-01 1.394409984E-01
 1.253129989E-01 1.133380011E-01 1.037219986E-01 9.638399631E-02 9.138900042E-02
 8.857599646E-02 8.773499727E-02 8.856400102E-02 9.136000276E-02 9.633900225E-02
 1.036610007E-01 1.132630035E-01 1.252219975E-01 1.393329948E-01 1.555159986E-01
 1.733029932E-01 1.927700043E-01 2.136480063E-01 2.357929945E-01 2.589890063E-01
 2.829979956E-01 3.076750040E-01 3.327130079E-01 3.118520081E-01 3.363479972E-01
 2.879250050E-01 2.647329867E-01 2.423850000E-01 2.211070061E-01 2.011490017E-01
 1.826200038E-01 1.658259928E-01 1.506180018E-01 1.374370009E-01 1.263400018E-01
 1.174860001E-01 1.107600033E-01 1.061900035E-01 1.036129966E-01 1.028390005E-01
 1.036010012E-01 1.061609983E-01 1.107140034E-01 1.174250022E-01 1.262629926E-01
 1.373430043E-01 1.505060047E-01 1.657020003E-01 1.824840009E-01 2.009979934E-01
 2.209469974E-01 2.422190011E-01 2.645690143E-01 2.877680063E-01 3.117020130E-01
 3.362010121E-01 3.163149953E-01 3.402329981E-01 2.931529880E-01 2.707929909E-01
 2.493080050E-01 2.289090008E-01 2.098730057E-01 1.922820061E-01 1.764560044E-01
 1.621949971E-01 1.498879939E-01 1.395870000E-01 1.314029992E-01 1.252049953E-01
 1.209950000E-01 1.186169982E-01 1.178959981E-01 1.186029986E-01 1.209639981E-01
 1.251569986E-01 1.313399971E-01 1.395069957E-01 1.497920007E-01 1.620769948E-01
 1.763280034E-01 1.921389997E-01 2.097119987E-01 2.287349999E-01 2.491260022E-01
 2.706120014E-01 2.929779887E-01 3.161480129E-01 3.400680125E-01 3.211950064E-01
 3.444890082E-01 2.988399863E-01 2.773259878E-01 2.567200065E-01 2.371910065E-01
 2.190569937E-01 2.023809999E-01 1.874700040E-01 1.741130054E-01 1.626120061E-01
 1.530320048E-01 1.454380006E-01 1.397050023E-01 1.358029991E-01 1.335940063E-01
 1.329129934E-01 1.335780025E-01 1.357710063E-01 1.396549940E-01 1.453730017E-01
 1.529490054E-01 1.625120044E-01 1.739909947E-01 1.873379946E-01 2.022289932E-01
 2.188860029E-01 2.370029986E-01 2.565209866E-01 2.771260142E-01 2.986449897E-01
 3.210070133E-01 3.443039954E-01 3.264510036E-01 3.491060138E-01 3.049179912E-01
 2.842560112E-01 2.645390034E-01 2.458810061E-01 2.286249995E-01 2.128479928E-01
 1.988060027E-01 1.863189936E-01 1.755640060E-01 1.666440070E-01 1.595750004E-01
 1.542499959E-01 1.506170034E-01 1.485520005E-01 1.479009986E-01 1.485339999E-01
 1.505820006E-01 1.541970074E-01 1.595070064E-01 1.665560007E-01 1.754599959E-01
 1.861909926E-01 1.986709982E-01 2.126889974E-01 2.284449935E-01 2.456779927E-01
 2.643209994E-01 2.840369940E-01 3.047020137E-01 3.262439966E-01 3.489010036E-01
 3.320890069E-01 3.540929854E-01 3.114069998E-01 2.915880084E-01 2.727560103E-01
 2.549630105E-01 2.385579944E-01 2.236530036E-01 2.104289979E-01 1.987690032E-01
 1.887090057E-01 1.803929955E-01 1.737940013E-01 1.688330024E-01 1.654359996E-01
 1.634960026E-01 1.628690064E-01 1.634770036E-01 1.653990000E-01 1.687770039E-01
 1.737229973E-01 1.803009957E-01 1.886010021E-01 1.986369938E-01 2.102909982E-01
 2.234860063E-01 2.383690029E-01 2.547450066E-01 2.725189924E-01 2.913489938E-01
 3.111689985E-01 3.318609893E-01 3.538590074E-01 3.380750120E-01 3.594909906E-01
 3.182710111E-01 2.992979884E-01 2.813419998E-01 2.644099891E-01 2.488159984E-01
 2.347510010E-01 2.222999930E-01 2.114239931E-01 2.020190060E-01 1.942600012E-01
 1.880870014E-01 1.834499985E-01 1.802639961E-01 1.784349978E-01 1.778250039E-01
 1.784130037E-01 1.802240014E-01 1.833910048E-01 1.880110055E-01 1.941619962E-01
 2.019059956E-01 2.112880051E-01 2.221589983E-01 2.345779985E-01 2.486159950E-01
 2.641740143E-01 2.810850143E-01 2.990370095E-01 3.180100024E-01 3.378260136E-01
 3.592340052E-01 3.444010019E-01 3.652330041E-01 3.254809976E-01 3.073520064E-01
 2.902520001E-01 2.741799951E-01 2.593789995E-01 2.461320013E-01 2.344229966E-01
 2.242790014E-01 2.154890001E-01 2.082370073E-01 2.024510056E-01 1.981039941E-01
 1.951059997E-01 1.933739930E-01 1.927759945E-01 1.933500022E-01 1.950629950E-01
 1.980399936E-01 2.023680061E-01 2.081339955E-01 2.153690010E-01 2.241390049E-01
 2.342759967E-01 2.459529936E-01 2.591710091E-01 2.739300132E-01 2.899790108E-01
 3.070699871E-01 3.251990080E-01 3.441309929E-01 3.649530113E-01 3.510429859E-01
 3.712989986E-01 3.330009878E-01 3.157219887E-01 2.994340062E-01 2.842060030E-01
 2.701930106E-01 2.577359974E-01 2.467470020E-01 2.372889966E-01 2.290879935E-01
 2.223079950E-01 2.168779969E-01 2.127919942E-01 2.099629939E-01 2.083179951E-01
 2.077299953E-01 2.082920074E-01 2.099169940E-01 2.127240002E-01 2.167890072E-01
 2.221969962E-01 2.289600074E-01 2.371450067E-01 2.465949953E-01 2.575519979E-01
 2.699770033E-01 2.839440107E-01 2.991450131E-01 3.154189885E-01 3.326990008E-01
 3.507519960E-01 3.709959984E-01 3.579939902E-01 3.776679933E-01 3.408010006E-01
 3.243789971E-01 3.088760078E-01 2.944689989E-01 2.812510133E-01 2.695559859E-01
 2.592749894E-01 2.504549921E-01 2.428109944E-01 2.364670038E-01 2.313659936E-01
 2.275139987E-01 2.248400003E-01 2.232740074E-01 2.226919979E-01 2.232449949E-01
 2.247910053E-01 2.274419963E-01 2.312700003E-01 2.363490015E-01 2.426750064E-01
 2.503060102E-01 2.591150105E-01 2.693710029E-01 2.810289860E-01 2.942000031E-01
 3.085759878E-01 3.240570128E-01 3.404819965E-01 3.576810062E-01 3.773429990E-01
 3.652740121E-01 3.843140006E-01 3.488689959E-01 3.333219886E-01 3.185920119E-01
 3.049769998E-01 2.925530076E-01 2.815969884E-01 2.720049918E-01 2.637720108E-01
 2.566519976E-01 2.507109940E-01 2.459139973E-01 2.422759980E-01 2.397409976E-01
 2.382459939E-01 2.376700044E-01 2.382159978E-01 2.396890074E-01 2.421980053E-01
 2.458100021E-01 2.505840063E-01 2.565059960E-01 2.636129856E-01 2.718319893E-01
 2.813990116E-01 2.923229933E-01 3.047020137E-01 3.182759881E-01 3.329780102E-01
 3.485310078E-01 3.649320006E-01 3.839659989E-01 3.728800118E-01 3.912099898E-01
 3.572019935E-01 3.425079882E-01 3.285529912E-01 3.157289922E-01 3.041310012E-01
 2.938899994E-01 2.849540114E-01 2.772580087E-01 2.706120014E-01 2.650370002E-01
 2.605200112E-01 2.570779920E-01 2.546730042E-01 2.532419860E-01 2.526730001E-01
 2.532109916E-01 2.546170056E-01 2.569960058E-01 2.604089975E-01 2.648999989E-01
 2.704539895E-01 2.770870030E-01 2.847630084E-01 2.936750054E-01 3.038699925E-01
 3.154309988E-01 3.282279968E-01 3.421469927E-01 3.568460047E-01 3.725160062E-01
 3.908390105E-01 3.807080090E-01 3.983219862E-01 3.657819927E-01 3.519360125E-01
 3.388009965E-01 3.267720044E-01 3.159750104E-01 3.064210117E-01 2.980929911E-01
 2.908889949E-01 2.846759856E-01 2.794390023E-01 2.751860023E-01 2.719280124E-01
 2.696410120E-01 2.682720125E-01 2.677110136E-01 2.682389915E-01 2.695820034E-01
 2.718400061E-01 2.750680149E-01 2.792930007E-01 2.845059931E-01 2.907029986E-01
 2.978850007E-01 3.061850071E-01 3.156909943E-01 3.264409900E-01 3.384349942E-01
 3.515549898E-01 3.654080033E-01 3.803229928E-01 3.979279995E-01 3.887250125E-01
 4.056200087E-01 3.745979965E-01 3.615649939E-01 3.492920101E-01 3.380819857E-01
 3.280679882E-01 3.191809952E-01 3.114149868E-01 3.046639860E-01 2.988399863E-01
 2.939180136E-01 2.899119854E-01 2.868300080E-01 2.846550047E-01 2.833440006E-01
 2.827959955E-01 2.833110094E-01 2.845929861E-01 2.867369950E-01 2.897869945E-01
 2.937630117E-01 2.986589968E-01 3.044619858E-01 3.111869991E-01 3.189240098E-01
 3.277660012E-01 3.377310038E-01 3.489040136E-01 3.611750007E-01 3.742060065E-01
 3.883180022E-01 4.052000046E-01 3.968990147E-01 4.130600095E-01 3.836170137E-01
 3.713789880E-01 3.600510061E-01 3.496589959E-01 3.403910100E-01 3.321309984E-01
 3.248789907E-01 3.185499907E-01 3.130869865E-01 3.084659874E-01 3.046979904E-01
 3.017880023E-01 2.997240126E-01 2.984730005E-01 2.979429960E-01 2.984389961E-01
 2.996599972E-01 3.016920090E-01 3.045679927E-01 3.083040118E-01 3.128969967E-01
 3.183340132E-01 3.246349990E-01 3.318549991E-01 3.400720060E-01 3.492900133E-01
 3.596470058E-01 3.709839880E-01 3.831990063E-01 3.964700103E-01 4.126150012E-01
 4.052110016E-01 4.205969870E-01 3.927659988E-01 3.814150095E-01 3.710179925E-01
 3.614619970E-01 3.528999984E-01 3.452439904E-01 3.384650052E-01 3.325339854E-01
 3.274100125E-01 3.230769932E-01 3.195390105E-01 3.167999983E-01 3.148530126E-01
 3.136689961E-01 3.131679893E-01 3.136349916E-01 3.147870004E-01 3.167020082E-01
 3.194060028E-01 3.229109943E-01 3.272129893E-01 3.323090076E-01 3.382099867E-01
 3.449560106E-01 3.525800109E-01 3.610939980E-01 3.706130087E-01 3.809989989E-01
 3.923270106E-01 4.047600031E-01 4.201230109E-01 4.136219919E-01 4.281919897E-01
 4.020310044E-01 3.916470110E-01 3.820219934E-01 3.733319938E-01 3.655149937E-01
 3.584440053E-01 3.521369994E-01 3.466010094E-01 3.418099880E-01 3.377679884E-01
 3.344559968E-01 3.318929970E-01 3.300650120E-01 3.289510012E-01 3.284879923E-01
 3.289169967E-01 3.299979866E-01 3.317919970E-01 3.343209922E-01 3.375990093E-01
 3.416090012E-01 3.463700116E-01 3.518750072E-01 3.581529856E-01 3.651989996E-01
 3.729990125E-01 3.816429973E-01 3.911870122E-01 4.015809894E-01 4.131470025E-01
 4.276860058E-01 4.220690131E-01 4.357709885E-01 4.114139974E-01 4.019039869E-01
 3.932290077E-01 3.853349984E-01 3.781549931E-01 3.716610074E-01 3.658489883E-01
 3.607220054E-01 3.562810123E-01 3.525269926E-01 3.494539857E-01 3.470700085E-01
 3.453699946E-01 3.443349898E-01 3.439249992E-01 3.443009853E-01 3.453019857E-01
 3.469679952E-01 3.493179977E-01 3.523570001E-01 3.560769856E-01 3.604840040E-01
 3.655770123E-01 3.713540137E-01 3.778119981E-01 3.849479854E-01 3.927960098E-01
 4.014610052E-01 4.109500051E-01 4.215640128E-01 4.352310002E-01 4.305619895E-01
 4.432690144E-01 4.208759964E-01 4.122380018E-01 4.044399858E-01 3.973459899E-01
 3.908739984E-01 3.849839866E-01 3.796719909E-01 3.749589920E-01 3.708769977E-01
 3.674179912E-01 3.645859957E-01 3.623839915E-01 3.608149886E-01 3.598650098E-01
 3.595199883E-01 3.598310053E-01 3.607450128E-01 3.622800112E-01 3.644460142E-01
 3.672420084E-01 3.706659973E-01 3.747110069E-01 3.793810010E-01 3.846589923E-01
 3.905169964E-01 3.969579935E-01 4.040310085E-01 4.118140042E-01 4.203929901E-01
 4.300310016E-01 4.426850080E-01 4.389860034E-01 4.505999982E-01 4.304270148E-01
 4.227969944E-01 4.159100056E-01 4.095979929E-01 4.038250148E-01 3.985509872E-01
 3.937779963E-01 3.895170093E-01 3.857870102E-01 3.826079965E-01 3.799949884E-01
 3.779590130E-01 3.765049875E-01 3.756310046E-01 3.753350079E-01 3.755950034E-01
 3.764320016E-01 3.778490126E-01 3.798480034E-01 3.824230134E-01 3.855650127E-01
 3.892570138E-01 3.934819996E-01 3.982200027E-01 4.034610093E-01 4.092040062E-01
 4.154880047E-01 4.223459959E-01 4.299330115E-01 4.384590089E-01 4.499619901E-01
 4.474149942E-01 4.574219882E-01 4.400590062E-01 4.336059988E-01 4.276779890E-01
 4.221909940E-01 4.171090126E-01 4.124270082E-01 4.081639946E-01 4.043419957E-01
 4.009779990E-01 3.980970085E-01 3.957169950E-01 3.938519955E-01 3.925130069E-01
 3.917010128E-01 3.914200068E-01 3.916630149E-01 3.924370110E-01 3.937380016E-01
 3.955650032E-01 3.979069889E-01 4.007489979E-01 4.040749967E-01 4.078609943E-01
 4.120880067E-01 4.167360067E-01 4.217880070E-01 4.272460043E-01 4.331470132E-01
 4.395610094E-01 4.469270110E-01 4.567260146E-01 4.558300078E-01 4.636810124E-01
 4.501410127E-01 4.449200034E-01 4.399969876E-01 4.353320003E-01 4.309369922E-01
 4.268360138E-01 4.230679870E-01 4.196639955E-01 4.166510105E-01 4.140579998E-01
 4.119060040E-01 4.102100134E-01 4.089879990E-01 4.082410038E-01 4.079830050E-01
 4.082010090E-01 4.089089930E-01 4.100899994E-01 4.117450118E-01 4.138570130E-01
 4.164099991E-01 4.193820059E-01 4.227469862E-01 4.264769852E-01 4.305419922E-01
 4.349040091E-01 4.395399988E-01 4.444279969E-01 4.496090114E-01 4.553430080E-01
 4.630230069E-01 4.660049975E-01 4.691619873E-01 4.619269967E-01 4.582709968E-01
 4.543710053E-01 4.505240023E-01 4.467949867E-01 4.432609975E-01 4.399760067E-01
 4.369820058E-01 4.343180060E-01 4.320130050E-01 4.300920069E-01 4.285730124E-01
 4.274759889E-01 4.268049896E-01 4.265739918E-01 4.267750084E-01 4.274150133E-01
 4.284819961E-01 4.299699962E-01 4.318610132E-01 4.341369867E-01 4.367719889E-01
 4.397380054E-01 4.429979920E-01 4.465090036E-01 4.502179921E-01 4.540530145E-01
 4.579179883E-01 4.617100060E-01 4.649749994E-01 4.682579935E-01 8.959619999E-01
 8.932939768E-01 8.932920098E-01 8.959619999E-01 8.906049728E-01 8.905979991E-01
 8.878610134E-01 8.878459930E-01 8.850629926E-01 8.850370049E-01 8.822119832E-01
 8.821740150E-01 8.793110251E-01 8.792589903E-01 8.763620257E-01 8.762940168E-01
 8.733659983E-01 8.732820153E-01 8.703280091E-01 8.702260256E-01 8.672490120E-01
 8.671280146E-01 8.641319871E-01 8.639910221E-01 8.609799743E-01 8.608170152E-01
 8.577950001E-01 8.576110005E-01 8.545809984E-01 8.543729782E-01 8.513410091E-01
 8.511080146E-01 8.480769992E-01 8.478180170E-01 8.447920084E-01 8.445069790E-01
 8.414899707E-01 8.411759734E-01 8.381729722E-01 8.378300071E-01 8.348450065E-01
 8.344709873E-01 8.315079808E-01 8.311010003E-01 8.281649947E-01 8.277260065E-01
 8.248190284E-01 8.243460059E-01 8.214730024E-01 8.209649920E-01 8.181310296E-01
 8.175860047E-01 8.147950172E-01 8.142129779E-01 8.114690185E-01 8.108479977E-01
 8.081539869E-01 8.074939847E-01 8.048549891E-01 8.041549921E-01 8.015729785E-01
 8.008319736E-01 7.983130217E-01 7.975299954E-01 7.950760126E-01 7.942510247E-01
 7.918660045E-01 7.909979820E-01 7.886859775E-01 7.877740264E-01 7.855380177E-01
 7.845820189E-01 7.824249864E-01 7.814249992E-01 7.793499827E-01 7.783049941E-01
 7.763149738E-01 7.752259970E-01 7.733240128E-01 7.721899748E-01 7.703779936E-01
 7.692000270E-01 7.674810290E-01 7.662590146E-01 7.646350265E-01 7.633699775E-01
 7.618420124E-01 7.605339885E-01 7.591050267E-01 7.577559948E-01 7.564259768E-01
 7.550370097E-01 7.538059950E-01 7.523790002E-01 7.512500286E-01 7.497860193E-01
 7.487570047E-01 7.472599745E-01 7.463309765E-01 7.448030114E-01 7.439730167E-01
 7.424179912E-01 7.416849732E-01 7.401059866E-01 7.394679785E-01 7.378699780E-01
 7.373239994E-01 7.357130051E-01 7.352539897E-01 7.336350083E-01 7.332590222E-01
 7.316399813E-01 7.313399911E-01 7.297279835E-01 7.294989824E-01 7.279030085E-01
 7.277370095E-01 7.261649966E-01 7.260540128E-01 7.245169878E-01 7.244510055E-01
 7.229580283E-01 7.229310274E-01 7.214919925E-01 7.214940190E-01 7.201210260E-01
 7.201470137E-01 7.188230157E-01 7.188540101E-01 7.175269723E-01 7.175390124E-01
 7.162050009E-01 7.159960270E-01 7.146700025E-01 7.141969800E-01 7.128880024E-01
 7.121009827E-01 7.108209729E-01 7.096670270E-01 7.084280252E-01 7.068449855E-01
 7.056609988E-01 7.035840154E-01 7.024670243E-01 6.998249888E-01 6.987869740E-01
 6.955080032E-01 6.945589781E-01 6.905649900E-01 6.897130013E-01 6.849300265E-01
 6.841809750E-01 6.785299778E-01 6.778860092E-01 6.712909937E-01 6.707530022E-01
 6.631389856E-01 6.627050042E-01 6.540009975E-01 6.536650062E-01 6.438019872E-01
 6.435589790E-01 6.324740052E-01 6.323159933E-01 6.199520230E-01 6.198719740E-01
 6.061800122E-01 6.061710119E-01 5.911149979E-01 5.911679864E-01 5.747259855E-01
 5.748339891E-01 5.570039749E-01 5.571590066E-01 5.379649997E-01 5.381529927E-01
 5.176470280E-01 5.178459883E-01 4.960840046E-01 4.962910116E-01 4.733470082E-01
 4.735609889E-01 4.495239854E-01 4.497480094E-01 4.247260094E-01 4.249629974E-01
 3.990730047E-01 3.993290067E-01 3.726589978E-01 3.729400039E-01 3.455289900E-01
 3.458710015E-01 8.932899833E-01 8.959619999E-01 8.905900121E-01 8.878290057E-01
 8.850089908E-01 8.821330070E-01 8.792030215E-01 8.762220144E-01 8.731930256E-01
 8.701180220E-01 8.669999838E-01 8.638409972E-01 8.606449962E-01 8.574150205E-01
 8.541520238E-01 8.508599997E-01 8.475430012E-01 8.442019820E-01 8.408409953E-01
 8.374620080E-01 8.340700269E-01 8.306660056E-01 8.272539973E-01 8.238369823E-01
 8.204180002E-01 8.169990182E-01 8.135849833E-01 8.101779819E-01 8.067809939E-01
 8.033969998E-01 8.000299931E-01 7.966820002E-01 7.933560014E-01 7.900559902E-01
 7.867839932E-01 7.835440040E-01 7.803379893E-01 7.771700025E-01 7.740420103E-01
 7.709580064E-01 7.679190040E-01 7.649310231E-01 7.619940042E-01 7.591130137E-01
 7.562890053E-01 7.535259724E-01 7.508270144E-01 7.481949925E-01 7.456300259E-01
 7.431390285E-01 7.407230139E-01 7.383840084E-01 7.361260056E-01 7.339509726E-01
 7.318620086E-01 7.298610210E-01 7.279520035E-01 7.261360288E-01 7.244169712E-01
 7.227950096E-01 7.212730050E-01 7.198539972E-01 7.185130119E-01 7.171790004E-01
 7.158240080E-01 7.144560218E-01 7.128739953E-01 7.110509872E-01 7.089480162E-01
 7.065309882E-01 7.037510276E-01 7.005630136E-01 6.969079971E-01 6.927279830E-01
 6.879529953E-01 6.825140119E-01 6.763319969E-01 6.693289876E-01 6.614220142E-01
 6.525300145E-01 6.425729990E-01 6.314759851E-01 6.191700101E-01 6.055960059E-01
 5.907080173E-01 5.744760036E-01 5.568879843E-01 5.379539728E-01 5.177050233E-01
 4.961969852E-01 4.735040069E-01 4.497239888E-01 4.249770045E-01 3.993850052E-01
 3.730710149E-01 3.460980058E-01 8.932890296E-01 8.959619999E-01 8.905829787E-01
 8.878129721E-01 8.849819899E-01 8.820919991E-01 8.791459799E-01 8.761489987E-01
 8.731020093E-01 8.700079918E-01 8.668689728E-01 8.636900187E-01 8.604720235E-01
 8.572180271E-01 8.539310098E-01 8.506150246E-01 8.472710252E-01 8.439030051E-01
 8.405140042E-01 8.371070027E-01 8.336849809E-01 8.302509785E-01 8.268070221E-01
 8.233569860E-01 8.199040294E-01 8.164520264E-01 8.130019903E-01 8.095589876E-01
 8.061259985E-01 8.027049899E-01 7.992990017E-01 7.959129810E-01 7.925490141E-01
 7.892100215E-01 7.858989835E-01 7.826200128E-01 7.793750167E-01 7.761690021E-01
 7.730039954E-01 7.698829770E-01 7.668089867E-01 7.637850046E-01 7.608159781E-01
 7.579039931E-01 7.550519705E-01 7.522640228E-01 7.495419979E-01 7.468889952E-01
 7.443100214E-01 7.418059707E-01 7.393829823E-01 7.370399833E-01 7.347859740E-01
 7.326179743E-01 7.305420041E-01 7.285599709E-01 7.266749740E-01 7.248889804E-01
 7.232040167E-01 7.216209769E-01 7.201409936E-01 7.187590003E-01 7.174109817E-01
 7.160429955E-01 7.146620154E-01 7.132670283E-01 7.116569877E-01 7.098039985E-01
 7.076719999E-01 7.052260041E-01 7.024210095E-01 6.992130280E-01 6.955469847E-01
 6.913660169E-01 6.866040230E-01 6.811929941E-01 6.750580072E-01 6.681190133E-01
 6.602939963E-01 6.514989734E-01 6.416500211E-01 6.306700110E-01 6.184849739E-01
 6.050310135E-01 5.902600288E-01 5.741379857E-01 5.566509962E-01 5.378069878E-01
 5.176389813E-01 4.962010086E-01 4.735729992E-01 4.498549998E-01 4.251700044E-01
 3.996500075E-01 3.734180033E-01 3.465879858E-01 8.932870030E-01 8.959619999E-01
 8.905760050E-01 8.877969980E-01 8.849539757E-01 8.820499778E-01 8.790900111E-01
 8.760759830E-01 8.730109930E-01 8.698980212E-01 8.667389750E-01 8.635389805E-01
 8.602989912E-01 8.570230007E-01 8.537120223E-01 8.503710032E-01 8.470020294E-01
 8.436070085E-01 8.401910067E-01 8.367559910E-01 8.333039880E-01 8.298400044E-01
 8.263649940E-01 8.228830099E-01 8.193979859E-01 8.159120083E-01 8.124279976E-01
 8.089500070E-01 8.054810166E-01 8.020240068E-01 7.985820174E-01 7.951589823E-01
 7.917569876E-01 7.883809805E-01 7.850329876E-01 7.817170024E-01 7.784360051E-01
 7.751939893E-01 7.719929814E-01 7.688369751E-01 7.657300234E-01 7.626760006E-01
 7.596780062E-01 7.567380071E-01 7.538620234E-01 7.510510087E-01 7.483109832E-01
 7.456420064E-01 7.430520058E-01 7.405419946E-01 7.381160259E-01 7.357779741E-01
 7.335299850E-01 7.313770056E-01 7.293189764E-01 7.273629904E-01 7.255060077E-01
 7.237560153E-01 7.221080065E-01 7.205659747E-01 7.191290259E-01 7.177640200E-01
 7.163940072E-01 7.150080204E-01 7.136120200E-01 7.122030258E-01 7.105820179E-01
 7.087190151E-01 7.065799832E-01 7.041299939E-01 7.013220191E-01 6.981160045E-01
 6.944550276E-01 6.902850270E-01 6.855409741E-01 6.801559925E-01 6.740549803E-01
 6.671609879E-01 6.593930125E-01 6.506670117E-01 6.409010291E-01 6.300129890E-01
 6.179289818E-01 6.045820117E-01 5.899220109E-01 5.739099979E-01 5.565310121E-01
 5.377910137E-01 5.177220106E-01 4.963760078E-01 4.738360047E-01 4.502049983E-01
 4.256080091E-01 4.001800120E-01 3.740589917E-01 3.473440111E-01 8.932870030E-01
 8.959619999E-01 8.905720115E-01 8.877859712E-01 8.849350214E-01 8.820210099E-01
 8.790500164E-01 8.760240078E-01 8.729469776E-01 8.698199987E-01 8.666480184E-01
 8.634330034E-01 8.601779938E-01 8.568869829E-01 8.535599709E-01 8.502029777E-01
 8.468170166E-01 8.434050083E-01 8.399710059E-01 8.365179896E-01 8.330479860E-01
 8.295639753E-01 8.260710239E-01 8.225700259E-01 8.190649748E-01 8.155590296E-01
 8.120549917E-01 8.085569739E-01 8.050680161E-01 8.015909791E-01 7.981299758E-01
 7.946869731E-01 7.912660241E-01 7.878699899E-01 7.845039964E-01 7.811700106E-01
 7.778710127E-01 7.746120095E-01 7.713959813E-01 7.682250142E-01 7.651050091E-01
 7.620379925E-01 7.590289712E-01 7.560790181E-01 7.531960011E-01 7.503790259E-01
 7.476339936E-01 7.449640036E-01 7.423740029E-01 7.398669720E-01 7.374449968E-01
 7.351149917E-01 7.328749895E-01 7.307350039E-01 7.286890149E-01 7.267490029E-01
 7.249109745E-01 7.231789827E-01 7.215520144E-01 7.200300097E-01 7.186110020E-01
 7.172420025E-01 7.158560157E-01 7.144590020E-01 7.130489945E-01 7.116270065E-01
 7.099919915E-01 7.081120014E-01 7.059550285E-01 7.034860253E-01 7.006610036E-01
 6.974380016E-01 6.937630177E-01 6.895830035E-01 6.848340034E-01 6.794499755E-01
 6.733599901E-01 6.664879918E-01 6.587520242E-01 6.500710249E-01 6.403620243E-01
 6.295440197E-01 6.175429821E-01 6.042889953E-01 5.897290111E-01 5.738239884E-01
 5.565549731E-01 5.379250050E-01 5.179650187E-01 4.967269897E-01 4.742920101E-01
 4.507670105E-01 4.262810051E-01 4.009700119E-01 3.749719858E-01 3.484010100E-01
 8.932859898E-01 8.959619999E-01 8.905670047E-01 8.877750039E-01 8.849160075E-01
 8.819929957E-01 8.790109754E-01 8.759729862E-01 8.728830218E-01 8.697440028E-01
 8.665580153E-01 8.633289933E-01 8.600590229E-01 8.567519784E-01 8.534100056E-01
 8.500369787E-01 8.466339707E-01 8.432059884E-01 8.397539854E-01 8.362830281E-01
 8.327950239E-01 8.292940259E-01 8.257809877E-01 8.222619891E-01 8.187379837E-01
 8.152130246E-01 8.116899729E-01 8.081730008E-01 8.046650290E-01 8.011689782E-01
 7.976880074E-01 7.942270041E-01 7.907869816E-01 7.873740196E-01 7.839900255E-01
 7.806389928E-01 7.773249745E-01 7.740499973E-01 7.708200216E-01 7.676360011E-01
 7.645040154E-01 7.614250183E-01 7.584080100E-01 7.554500103E-01 7.525609732E-01
 7.497400045E-01 7.469930053E-01 7.443230152E-01 7.417340279E-01 7.392330170E-01
 7.368159890E-01 7.344959974E-01 7.322679758E-01 7.301399708E-01 7.281119823E-01
 7.261880040E-01 7.243700027E-01 7.226570249E-01 7.210509777E-01 7.195500135E-01
 7.181450129E-01 7.167720199E-01 7.153779864E-01 7.139750123E-01 7.125579715E-01
 7.111319900E-01 7.094910145E-01 7.076069713E-01 7.054470181E-01 7.029740214E-01
 7.001469731E-01 6.969230175E-01 6.932489872E-01 6.890709996E-01 6.843280196E-01
 6.789550185E-01 6.728799939E-01 6.660299897E-01 6.583250165E-01 6.496829987E-01
 6.400250196E-01 6.292690039E-01 6.173409820E-01 6.041719913E-01 5.897070169E-01
 5.739049911E-01 5.567460060E-01 5.382320285E-01 5.183899999E-01 4.972720146E-01
 4.749610126E-01 4.515590072E-01 4.272019863E-01 4.020259976E-01 3.761729896E-01
 3.497619927E-01 8.932849765E-01 8.959619999E-01 8.905630112E-01 8.877649903E-01
 8.848980069E-01 8.819659948E-01 8.789740205E-01 8.759250045E-01 8.728230000E-01
 8.696720004E-01 8.664730191E-01 8.632299900E-01 8.599470258E-01 8.566250205E-01
 8.532689810E-01 8.498799801E-01 8.464620113E-01 8.430179954E-01 8.395500183E-01
 8.360630274E-01 8.325579762E-01 8.290399909E-01 8.255109787E-01 8.219739795E-01
 8.184329867E-01 8.148900270E-01 8.113510013E-01 8.078160286E-01 8.042910099E-01
 8.007779717E-01 7.972810268E-01 7.938039899E-01 7.903490067E-01 7.869200110E-01
 7.835220098E-01 7.801570296E-01 7.768309712E-01 7.735440135E-01 7.703030109E-01
 7.671089768E-01 7.639690042E-01 7.608839869E-01 7.578600049E-01 7.548990250E-01
 7.520080209E-01 7.491869926E-01 7.464399934E-01 7.437750101E-01 7.411919832E-01
 7.386990190E-01 7.362920046E-01 7.339829803E-01 7.317699790E-01 7.296559811E-01
 7.276449800E-01 7.257369757E-01 7.239390016E-01 7.222449780E-01 7.206569910E-01
 7.191740274E-01 7.177799940E-01 7.164040208E-01 7.150070071E-01 7.136020064E-01
 7.121840119E-01 7.107560039E-01 7.091159821E-01 7.072309852E-01 7.050719857E-01