TITLE     = "vol-for-blayer-sst.fu"
VARIABLES = "xw (m)"
"yw (m)"
"zw (m)"
"pw (Pa)"
"CH (kg/m^2.s)"
"He (J/kg)"
ZONE T="zone 1"
 STRANDID=0, SOLUTIONTIME=0
 I=33, J=33, K=1, ZONETYPE=Ordered
 DATAPACKING=BLOCK
 DT=(DOUBLE DOUBLE DOUBLE DOUBLE DOUBLE DOUBLE )
 3.551211630E-01 3.243808105E-01 2.930882968E-01 2.615245053E-01 2.299802252E-01
 1.987455289E-01 1.680992052E-01 1.382990538E-01 1.095737398E-01 8.211670813E-02
 5.657825234E-02 3.632945329E-02 2.139683397E-02 1.103048281E-02 4.477320308E-03
 1.019334446E-03 1.000000000E-30 1.019334446E-03 4.477320308E-03 1.103048281E-02
 2.139683397E-02 3.632945329E-02 5.657825234E-02 8.211670813E-02 1.095737398E-01
 1.382990538E-01 1.680992052E-01 1.987455289E-01 2.299802252E-01 2.615245053E-01
 2.930882968E-01 3.243808105E-01 3.551211630E-01 3.551211630E-01 3.246994583E-01
 2.934060274E-01 2.618389273E-01 2.303018195E-01 1.990866271E-01 1.684722643E-01
 1.387174429E-01 1.100533613E-01 8.267906122E-02 5.720389102E-02 3.696494920E-02
 2.204059518E-02 1.168009218E-02 5.130680369E-03 1.674702708E-03 6.559829459E-04
 1.674703355E-03 5.130682219E-03 1.168009595E-02 2.204060190E-02 3.696496039E-02
 5.720390887E-02 8.267908618E-02 1.100533932E-01 1.387174838E-01 1.684723168E-01
 1.990866959E-01 2.303019104E-01 2.618390379E-01 2.934060777E-01 3.246988785E-01
 3.551211630E-01 3.551211630E-01 3.253356764E-01 2.941028072E-01 2.625052363E-01
 2.309585606E-01 1.997911295E-01 1.692942644E-01 1.397289443E-01 1.113255657E-01
 8.428542564E-02 5.908360201E-02 3.889975189E-02 2.399749239E-02 1.363612607E-02
 7.073415245E-03 3.602120840E-03 2.576459370E-03 3.604396034E-03 7.078228802E-03
 1.364378147E-02 2.400829889E-02 3.891396300E-02 5.910130955E-02 8.430422675E-02
 1.113436270E-01 1.397455122E-01 1.693085405E-01 1.998024361E-01 2.309665328E-01
 2.625099595E-01 2.941047838E-01 3.253353429E-01 3.551211630E-01 3.551211630E-01
 3.259428055E-01 2.948743642E-01 2.633050126E-01 2.318015084E-01 2.007516690E-01
 1.704706743E-01 1.412272564E-01 1.132536336E-01 8.675554811E-02 6.205518537E-02
 4.199243745E-02 2.715049599E-02 1.680558935E-02 1.023354212E-02 6.745102542E-03
 5.711483445E-03 6.751562818E-03 1.024715625E-02 1.682712933E-02 2.718069956E-02
 4.203182175E-02 6.210375343E-02 8.680572929E-02 1.133015458E-01 1.412708893E-01
 1.705079902E-01 2.007809917E-01 2.318219660E-01 2.633168674E-01 2.948790675E-01
 3.259425919E-01 3.551211630E-01 3.551211630E-01 3.265266772E-01 2.956955742E-01
 2.642168412E-01 2.328167723E-01 2.019559568E-01 1.719814046E-01 1.431740295E-01
 1.157702838E-01 8.998165951E-02 6.603310309E-02 4.616255614E-02 3.142967951E-02
 2.113102591E-02 1.456539250E-02 1.106669788E-02 1.002738055E-02 1.107898883E-02
 1.459119481E-02 2.117164925E-02 3.148629861E-02 4.623585438E-02 6.612275171E-02
 9.007168174E-02 1.158561231E-01 1.432519898E-01 1.720478705E-01 2.020080199E-01
 2.328529521E-01 2.642376331E-01 2.957036315E-01 3.265265314E-01 3.551211630E-01
 3.551211630E-01 3.270977893E-01 2.965577805E-01 2.652307026E-01 2.339966793E-01
 2.033959677E-01 1.738126151E-01 1.455424637E-01 1.188269487E-01 9.388189548E-02
 7.093151295E-02 5.135933202E-02 3.678962191E-02 2.657427454E-02 2.003795093E-02
 1.654107758E-02 1.550012641E-02 1.656063022E-02 2.007885084E-02 2.663837578E-02
 3.687848331E-02 5.147366595E-02 7.106737683E-02 9.401730836E-02 1.189563364E-01
 1.456600220E-01 1.739128060E-01 2.034743936E-01 2.340511080E-01 2.652618674E-01
 2.965697195E-01 3.270976815E-01 3.551211630E-01 3.551211630E-01 3.276607008E-01
 2.974553164E-01 2.663389891E-01 2.353343603E-01 2.050640814E-01 1.759522263E-01
 1.483105321E-01 1.223841016E-01 9.838871204E-02 7.654979310E-02 5.754917443E-02
 4.319940834E-02 3.310860594E-02 2.662878611E-02 2.314890409E-02 2.211140868E-02
 2.317696839E-02 2.668729897E-02 3.319993773E-02 4.332542417E-02 5.771047889E-02
 7.673331605E-02 9.857302452E-02 1.225610138E-01 1.484717112E-01 1.760898315E-01
 2.051719088E-01 2.354092170E-01 2.663817928E-01 2.974716235E-01 3.276606109E-01
 3.551211630E-01 3.551211630E-01 3.282184929E-01 2.983848922E-01 2.675358844E-01
 2.368235673E-01 2.069528379E-01 1.783888717E-01 1.514585134E-01 1.264071812E-01
 1.034437229E-01 8.278217385E-02 6.470895227E-02 5.063698075E-02 4.071423434E-02
 3.432060685E-02 3.087469686E-02 2.984633255E-02 3.091236638E-02 3.439891480E-02
 4.083602518E-02 5.080434683E-02 6.492228830E-02 8.301435889E-02 1.036790349E-01
 1.266344870E-01 1.516665552E-01 1.785670903E-01 2.070928383E-01 2.369209103E-01
 2.675915581E-01 2.984060623E-01 3.282184057E-01 3.551211630E-01 3.551211630E-01
 3.287732085E-01 2.993442804E-01 2.688164054E-01 2.384581780E-01 2.090545825E-01
 1.811112827E-01 1.549677919E-01 1.308647013E-01 1.089953173E-01 8.954888828E-02
 7.273707562E-02 5.908584903E-02 4.937572628E-02 4.309931007E-02 3.970536369E-02
 3.869212674E-02 3.975359394E-02 4.319930793E-02 4.953076698E-02 5.929819158E-02
 7.299755727E-02 8.982972828E-02 1.092827934E-01 1.311445493E-01 1.552254810E-01
 1.813330968E-01 2.092294831E-01 2.385801133E-01 2.688862526E-01 2.993708641E-01
 3.287731124E-01 3.551211630E-01 3.551211630E-01 3.293260311E-01 3.003316017E-01
 2.701759192E-01 2.402320180E-01 2.113614204E-01 1.841081738E-01 1.588205102E-01
 1.357276076E-01 1.149977318E-01 9.678284422E-02 8.124155655E-02 6.853146135E-02
 5.908053453E-02 5.295291851E-02 4.962942918E-02 4.863748004E-02 4.968905025E-02
 5.307624405E-02 5.927123868E-02 6.879043649E-02 8.154289741E-02 9.711174940E-02
 1.153379499E-01 1.360617055E-01 1.591304060E-01 1.843765488E-01 2.115740768E-01
 2.403808369E-01 2.702614101E-01 3.003642508E-01 3.293259149E-01 3.551211630E-01
 3.551211630E-01 3.298776837E-01 3.013451482E-01 2.716100344E-01 2.421389359E-01
 2.138654088E-01 1.873684545E-01 1.629997162E-01 1.409692969E-01 1.214107929E-01
 1.044282955E-01 9.011832620E-02 7.856205538E-02 6.980460642E-02 6.387109972E-02
 6.063671468E-02 5.967226476E-02 6.070843774E-02 6.401915263E-02 7.002972965E-02
 7.885125202E-02 9.045889110E-02 1.048043773E-01 1.218039963E-01 1.413591207E-01
 1.633643334E-01 1.876865053E-01 2.141189588E-01 2.423172482E-01 2.717129039E-01
 3.013846671E-01 3.298775348E-01 3.551211630E-01 3.551211630E-01 3.304286010E-01
 3.023832719E-01 2.731145553E-01 2.441729233E-01 2.165588166E-01 1.908815755E-01
 1.674897345E-01 1.465659272E-01 1.281999101E-01 1.124397639E-01 9.931562819E-02
 8.883557502E-02 8.097121942E-02 7.563002045E-02 7.263666118E-02 7.173372106E-02
 7.271828392E-02 7.579479958E-02 8.121628920E-02 8.915329762E-02 9.969378627E-02
 1.128620107E-01 1.286461775E-01 1.470128708E-01 1.679116816E-01 1.912527066E-01
 2.168568242E-01 2.443837920E-01 2.732369090E-01 3.024306777E-01 3.304284023E-01
 3.551211630E-01 3.551211630E-01 3.309790324E-01 3.034443281E-01 2.746854752E-01
 2.463282595E-01 2.194344268E-01 1.946379574E-01 1.722766608E-01 1.524968607E-01
 1.353361777E-01 1.207811134E-01 1.087950575E-01 9.931978985E-02 9.226804770E-02
 8.750659695E-02 8.484700654E-02 8.404895386E-02 8.493417752E-02 8.768301579E-02
 9.253183571E-02 9.966446068E-02 1.092092348E-01 1.212484831E-01 1.358355274E-01
 1.530023386E-01 1.727587487E-01 1.950659916E-01 2.197810322E-01 2.465753540E-01
 2.748299164E-01 3.035009259E-01 3.309787567E-01 3.551211630E-01 3.551211630E-01
 3.315291017E-01 3.045266372E-01 2.763189810E-01 2.485996660E-01 2.224858684E-01
 1.986294741E-01 1.773489243E-01 1.587451612E-01 1.427964983E-01 1.294247737E-01
 1.185292543E-01 1.099941638E-01 1.036869197E-01 9.944809604E-02 9.708650278E-02
 9.638190918E-02 9.717888579E-02 9.963541960E-02 1.039682605E-01 1.103642842E-01
 1.189779264E-01 1.299362200E-01 1.433489337E-01 1.593106652E-01 1.778942454E-01
 1.991187685E-01 2.228859432E-01 2.488874344E-01 2.764887631E-01 3.045941146E-01
 3.315287041E-01 3.551211630E-01 3.551211630E-01 3.320788381E-01 3.056284444E-01
 2.780114590E-01 2.509824737E-01 2.257079891E-01 2.028500024E-01 1.826979177E-01
 1.652981334E-01 1.505637466E-01 1.383511110E-01 1.285002236E-01 1.208473237E-01
 1.152266422E-01 1.114637495E-01 1.093716936E-01 1.087515824E-01 1.094689372E-01
 1.116612279E-01 1.155243718E-01 1.212414084E-01 1.289818645E-01 1.389055559E-01
 1.511692482E-01 1.659252462E-01 1.833098955E-01 2.034055576E-01 2.261673089E-01
 2.513163518E-01 2.782106788E-01 3.057089965E-01 3.320782443E-01 3.551211630E-01
 3.551211630E-01 3.326281869E-01 3.067478662E-01 2.797594984E-01 2.534728158E-01
 2.290972955E-01 2.072960636E-01 1.883187091E-01 1.721479122E-01 1.586269720E-01
 1.475479658E-01 1.386980814E-01 1.318753708E-01 1.268915023E-01 1.235657338E-01
 1.217200821E-01 1.211772206E-01 1.218217995E-01 1.237725584E-01 1.272043909E-01
 1.322918646E-01 1.392110789E-01 1.481442249E-01 1.592854373E-01 1.728382698E-01
 1.890011074E-01 2.079236110E-01 2.296227203E-01 2.538594691E-01 2.799933358E-01
 3.068443574E-01 3.326272776E-01 3.551211630E-01 3.551211630E-01 3.331770054E-01
 3.078828171E-01 2.815598989E-01 2.560678775E-01 2.326525133E-01 2.119676160E-01
 1.942108883E-01 1.792921443E-01 1.669816871E-01 1.570103658E-01 1.491202081E-01
 1.430807648E-01 1.386904101E-01 1.357688825E-01 1.341503815E-01 1.336787786E-01
 1.342561280E-01 1.359841383E-01 1.390170860E-01 1.435179418E-01 1.496627473E-01
 1.576470258E-01 1.676928124E-01 1.800473383E-01 1.949677700E-01 2.126736817E-01
 2.332521814E-01 2.565154959E-01 2.818349224E-01 3.079989950E-01 3.331755923E-01
 3.551211630E-01 3.551211630E-01 3.337250385E-01 3.090309058E-01 2.834096927E-01
 2.587662531E-01 2.363753460E-01 2.168690789E-01 2.003796074E-01 1.867348006E-01
 1.756302598E-01 1.667404044E-01 1.597706954E-01 1.544716283E-01 1.506363896E-01
 1.480905812E-01 1.466827635E-01 1.462772937E-01 1.467920115E-01 1.483131941E-01
 1.509752547E-01 1.549274737E-01 1.603406113E-01 1.674156534E-01 1.763933559E-01
 1.875562020E-01 2.012152146E-01 2.176609892E-01 2.370588576E-01 2.592848848E-01
 2.837342379E-01 3.091716763E-01 3.337228268E-01 3.551211630E-01 3.551211630E-01
 3.342718708E-01 3.101892944E-01 2.853062093E-01 2.615684913E-01 2.402715558E-01
 2.220107094E-01 2.068369056E-01 1.944871734E-01 1.845824349E-01 1.767472732E-01
 1.706600228E-01 1.660613136E-01 1.627462980E-01 1.605507592E-01 1.593390799E-01
 1.589951884E-01 1.594511911E-01 1.607794365E-01 1.630954312E-01 1.665333857E-01
 1.712546168E-01 1.774586725E-01 1.853961615E-01 1.953756539E-01 2.077554305E-01
 2.228965137E-01 2.410501343E-01 2.621704343E-01 2.856908551E-01 3.103610807E-01
 3.342683991E-01 3.551211630E-01 3.551211630E-01 3.348168423E-01 3.113545122E-01
 2.872472322E-01 2.644779752E-01 2.443525626E-01 2.274105006E-01 2.136034155E-01
 2.025690904E-01 1.938559716E-01 1.870473917E-01 1.818048595E-01 1.778681128E-01
 1.750406344E-01 1.731718853E-01 1.721430111E-01 1.718564712E-01 1.722572053E-01
 1.734050499E-01 1.753976839E-01 1.783533838E-01 1.824206800E-01 1.877915860E-01
 1.947179746E-01 2.035246079E-01 2.146086055E-01 2.283987344E-01 2.452391251E-01
 2.651781801E-01 2.877053731E-01 3.115657076E-01 3.348113896E-01 3.551211630E-01
 3.551211630E-01 3.353589186E-01 3.125222251E-01 2.892313556E-01 2.675023856E-01
 2.486378641E-01 2.330968317E-01 2.207105597E-01 2.110103586E-01 2.034773481E-01
 1.976645511E-01 1.932278815E-01 1.899149722E-01 1.875433167E-01 1.859788702E-01
 1.851200703E-01 1.848867753E-01 1.852353914E-01 1.862145880E-01 1.879053797E-01
 1.904096457E-01 1.938604604E-01 1.984369038E-01 2.043837746E-01 2.120313575E-01
 2.218050837E-01 2.341960335E-01 2.496469270E-01 2.683188542E-01 2.897798908E-01
 3.127837724E-01 3.353503604E-01 3.551211630E-01 3.551211630E-01 3.358964859E-01
 3.136869793E-01 2.912587559E-01 2.706561971E-01 2.531587542E-01 2.391121631E-01
 2.282033081E-01 2.198523543E-01 2.134823884E-01 2.086298983E-01 2.049574172E-01
 2.022290352E-01 2.002812622E-01 1.989987365E-01 1.982973463E-01 1.981131244E-01
 1.984126260E-01 1.992346391E-01 2.006447549E-01 2.027283447E-01 2.056009687E-01
 2.094240500E-01 2.144272597E-01 2.209349312E-01 2.293877748E-01 2.403299780E-01
 2.543059918E-01 2.716102401E-01 2.919188584E-01 3.140130769E-01 3.358830747E-01
 3.551211630E-01 3.551211630E-01 3.364270428E-01 3.148419806E-01 2.933328328E-01
 2.739650136E-01 2.579640647E-01 2.455181010E-01 2.361434413E-01 2.291495148E-01
 2.239165018E-01 2.199814588E-01 2.170266407E-01 2.148407473E-01 2.132835322E-01
 2.122598402E-01 2.117027840E-01 2.115632342E-01 2.118166052E-01 2.124930464E-01
 2.136440550E-01 2.153387407E-01 2.176737239E-01 2.207888071E-01 2.248909266E-01
 2.302862837E-01 2.374149350E-01 2.468597443E-01 2.592652549E-01 2.750811915E-01
 2.941307558E-01 3.152509504E-01 3.364060744E-01 3.551211630E-01 3.551211630E-01
 3.369467345E-01 3.159791367E-01 2.954637074E-01 2.774732093E-01 2.631289627E-01
 2.524020180E-01 2.446129148E-01 2.389701102E-01 2.348339314E-01 2.317626638E-01
 2.294718469E-01 2.277821167E-01 2.265796719E-01 2.257903051E-01 2.253636846E-01
 2.252640343E-01 2.254743494E-01 2.260173501E-01 2.269318851E-01 2.282714486E-01
 2.301130237E-01 2.325717982E-01 2.358251792E-01 2.401487422E-01 2.459628936E-01
 2.538677525E-01 2.645978104E-01 2.787784868E-01 2.964314251E-01 3.164944197E-01
 3.369140657E-01 3.551211630E-01 3.551211630E-01 3.374496921E-01 3.170899653E-01
 2.976757371E-01 2.812574478E-01 2.687680069E-01 2.598848209E-01 2.537161243E-01
 2.493950271E-01 2.462949340E-01 2.440190163E-01 2.423290932E-01 2.410835051E-01
 2.401966822E-01 2.396151440E-01 2.393039207E-01 2.392389178E-01 2.394094295E-01
 2.398319322E-01 2.405342160E-01 2.415552713E-01 2.429526266E-01 2.448151658E-01
 2.472854297E-01 2.505964757E-01 2.551275469E-01 2.614659966E-01 2.704120444E-01
 2.827787322E-01 2.988510046E-01 3.177412403E-01 3.373990526E-01 3.551211630E-01
 3.551211630E-01 3.379271306E-01 3.181692029E-01 3.000238230E-01 2.854502300E-01
 2.750529925E-01 2.681276515E-01 2.635782211E-01 2.605121702E-01 2.583591222E-01
 2.567915686E-01 2.556281410E-01 2.547680319E-01 2.541537902E-01 2.537512818E-01
 2.535391069E-01 2.535029652E-01 2.536371611E-01 2.539530881E-01 2.544692298E-01
 2.552117093E-01 2.562198269E-01 2.575561988E-01 2.593255452E-01 2.617087859E-01
 2.650219493E-01 2.698008677E-01 2.768662912E-01 2.872085525E-01 3.014485478E-01
 3.189934647E-01 3.378492757E-01 3.551211630E-01 3.551211630E-01 3.383663865E-01
 3.192264777E-01 3.026287143E-01 2.902786008E-01 2.822324887E-01 2.773310489E-01
 2.743338158E-01 2.724026469E-01 2.710724646E-01 2.701054410E-01 2.693822881E-01
 2.688423582E-01 2.684538723E-01 2.681993847E-01 2.680686561E-01 2.680550861E-01
 2.681567046E-01 2.683809449E-01 2.687388835E-01 2.692459436E-01 2.699255604E-01
 2.708162110E-01 2.719852816E-01 2.735566446E-01 2.757647755E-01 2.790503489E-01
 2.841835680E-01 2.922766788E-01 3.043428677E-01 3.202686511E-01 3.382483139E-01
 3.551211630E-01 3.551211630E-01 3.387511512E-01 3.203224469E-01 3.057508444E-01
 2.961183402E-01 2.906389008E-01 2.877123211E-01 2.860972060E-01 2.851140661E-01
 2.844453620E-01 2.839516256E-01 2.835726245E-01 2.832824737E-01 2.830701841E-01
 2.829311555E-01 2.828633861E-01 2.828657450E-01 2.829387389E-01 2.830868946E-01
 2.833158546E-01 2.836329332E-01 2.840491019E-01 2.845829833E-01 2.852692879E-01
 2.861772466E-01 2.874517137E-01 2.894007716E-01 2.926529296E-01 2.983160490E-01
 3.077747126E-01 3.216332505E-01 3.385764411E-01 3.551211630E-01 3.551211630E-01
 3.390691381E-01 3.216754307E-01 3.099265771E-01 3.035362790E-01 3.006447867E-01
 2.994386853E-01 2.989057436E-01 2.986187002E-01 2.984211817E-01 2.982615528E-01
 2.981259520E-01 2.980135059E-01 2.979272642E-01 2.978708764E-01 2.978474142E-01
 2.978589972E-01 2.979074534E-01 2.979953338E-01 2.981247456E-01 2.982976479E-01
 2.985165707E-01 2.987861903E-01 2.991170150E-01 2.995344924E-01 3.001024498E-01
 3.009836216E-01 3.025835188E-01 3.058085116E-01 3.122144529E-01 3.232960662E-01
 3.388228522E-01 3.551211630E-01 3.551211630E-01 3.393567144E-01 3.239457571E-01
 3.161399706E-01 3.132186393E-01 3.125092490E-01 3.125060036E-01 3.126440486E-01
 3.127653004E-01 3.128412131E-01 3.128778644E-01 3.128881829E-01 3.128843923E-01
 3.128762820E-01 3.128711421E-01 3.128741117E-01 3.128885552E-01 3.129166248E-01
 3.129596336E-01 3.130177772E-01 3.130901803E-01 3.131748741E-01 3.132688855E-01
 3.133688285E-01 3.134732098E-01 3.135903668E-01 3.137649549E-01 3.141628089E-01
 3.153039161E-01 3.184794663E-01 3.258379629E-01 3.390457801E-01 3.551211630E-01
 3.551211630E-01 3.400881041E-01 3.289485963E-01 3.258853823E-01 3.257031413E-01
 3.261867184E-01 3.266692316E-01 3.270289965E-01 3.272757081E-01 3.274383257E-01
 3.275424836E-01 3.276075856E-01 3.276476004E-01 3.276723504E-01 3.276886090E-01
 3.277009219E-01 3.277121676E-01 3.277239695E-01 3.277368607E-01 3.277502926E-01
 3.277625240E-01 3.277703188E-01 3.277684505E-01 3.277490023E-01 3.277005957E-01
 3.276082497E-01 3.274571719E-01 3.272553260E-01 3.271339912E-01 3.276854761E-01
 3.306792035E-01 3.396912883E-01 3.551211630E-01 3.551211630E-01 3.450294816E-01
 3.410899368E-01 3.410414518E-01 3.413297704E-01 3.415601325E-01 3.417150909E-01
 3.418144427E-01 3.418770362E-01 3.419161301E-01 3.419403977E-01 3.419553621E-01
 3.419644888E-01 3.419699270E-01 3.419729846E-01 3.419744175E-01 3.419745907E-01
 3.419735486E-01 3.419710241E-01 3.419663867E-01 3.419585121E-01 3.419455346E-01
 3.419244321E-01 3.418903688E-01 3.418356970E-01 3.417485435E-01 3.416111201E-01
 3.413990981E-01 3.410892299E-01 3.407091748E-01 3.406243156E-01 3.430302622E-01
 3.551211630E-01 3.551211630E-01 3.551211630E-01 3.551211630E-01 3.551211630E-01
 3.551211630E-01 3.551211630E-01 3.551211630E-01 3.551211630E-01 3.551211630E-01
 3.551211630E-01 3.551211630E-01 3.551211630E-01 3.551211630E-01 3.551211630E-01
 3.551211630E-01 3.551211630E-01 3.551211630E-01 3.551211630E-01 3.551211630E-01
 3.551211630E-01 3.551211630E-01 3.551211630E-01 3.551211630E-01 3.551211630E-01
 3.551211630E-01 3.551211630E-01 3.551211630E-01 3.551211630E-01 3.551211630E-01
 3.551211630E-01 3.551211630E-01 3.551211630E-01 3.551211630E-01
 -4.459357189E-16 2.564348722E-16 -7.246399167E-16 1.849105460E-16 1.490162411E-16
 1.134742125E-16 2.859219225E-16 4.079118132E-16 3.256591862E-16 5.133143429E-16
 -3.748666781E-16 -3.434948519E-16 -1.392428783E-16 7.581173915E-14 2.024933152E-13
 9.246904651E-14 1.000000000E-30 -9.250272424E-14 -2.025867134E-13 -7.604775662E-14
 6.035494003E-17 1.370262830E-16 2.438425823E-16 -8.013819252E-16 -5.024243835E-16
 -5.939929857E-16 -7.134979823E-16 -1.006617677E-15 -3.734940170E-16 -7.881954174E-16
 4.034538386E-16 -1.260206110E-15 -6.061826053E-16 -3.841401030E-02 -3.791209692E-02
 -3.810472560E-02 -3.822407459E-02 -3.829782056E-02 -3.834328744E-02 -3.837119695E-02
 -3.838814366E-02 -3.839814325E-02 -3.840356644E-02 -3.840670104E-02 -3.840924933E-02
 -3.841080642E-02 -3.841174252E-02 -3.841228284E-02 -3.841256033E-02 -3.841264524E-02
 -3.841255958E-02 -3.841228110E-02 -3.841173912E-02 -3.841080001E-02 -3.840923753E-02
 -3.840667973E-02 -3.840352872E-02 -3.839807769E-02 -3.838803165E-02 -3.837100821E-02
 -3.834297339E-02 -3.829730334E-02 -3.822322981E-02 -3.810335559E-02 -3.790989514E-02
 -3.841401030E-02 -7.678688592E-02 -7.265784543E-02 -7.237362446E-02 -7.259804902E-02
 -7.293735470E-02 -7.331310462E-02 -7.370161877E-02 -7.409067458E-02 -7.447239572E-02
 -7.484559628E-02 -7.522199642E-02 -7.553212433E-02 -7.575963087E-02 -7.591890946E-02
 -7.602118885E-02 -7.607666670E-02 -7.609464444E-02 -7.608108102E-02 -7.603034346E-02
 -7.593301195E-02 -7.577870210E-02 -7.555591172E-02 -7.524986577E-02 -7.487660614E-02
 -7.450508485E-02 -7.412303032E-02 -7.373135188E-02 -7.333804399E-02 -7.295599624E-02
 -7.261008212E-02 -7.238019445E-02 -7.266096498E-02 -7.678688592E-02 -1.150775362E-01
 -1.079227874E-01 -1.061822964E-01 -1.059105306E-01 -1.062071546E-01 -1.067900855E-01
 -1.075342814E-01 -1.083651190E-01 -1.092331127E-01 -1.101126469E-01 -1.110136580E-01
 -1.117860555E-01 -1.123605698E-01 -1.127661808E-01 -1.130282259E-01 -1.131710191E-01
 -1.132175472E-01 -1.131826887E-01 -1.130523709E-01 -1.128032748E-01 -1.124105717E-01
 -1.118481831E-01 -1.110861203E-01 -1.101931755E-01 -1.093177966E-01 -1.084486707E-01
 -1.076107115E-01 -1.068536722E-01 -1.062538073E-01 -1.059391183E-01 -1.061953408E-01
 -1.079255036E-01 -1.150775362E-01 -1.532449586E-01 -1.434063746E-01 -1.397649287E-01
 -1.386167335E-01 -1.386517322E-01 -1.393419875E-01 -1.404197993E-01 -1.417183420E-01
 -1.431251474E-01 -1.445729144E-01 -1.460526378E-01 -1.473751475E-01 -1.483695353E-01
 -1.490766428E-01 -1.495360916E-01 -1.497877181E-01 -1.498700972E-01 -1.498084680E-01
 -1.495789295E-01 -1.491422949E-01 -1.484577997E-01 -1.474845084E-01 -1.461798392E-01
 -1.447146160E-01 -1.432742257E-01 -1.418655120E-01 -1.405545364E-01 -1.394541408E-01
 -1.387338551E-01 -1.386664047E-01 -1.397860581E-01 -1.434082142E-01 -1.532449586E-01
 -1.912482825E-01 -1.789549479E-01 -1.732465660E-01 -1.709918578E-01 -1.706104454E-01
 -1.713272963E-01 -1.727091047E-01 -1.744762517E-01 -1.764372314E-01 -1.784690732E-01
 -1.805191257E-01 -1.824304347E-01 -1.838853190E-01 -1.849267011E-01 -1.856071247E-01
 -1.859816652E-01 -1.861048198E-01 -1.860126232E-01 -1.856709063E-01 -1.850242414E-01
 -1.840161716E-01 -1.825922326E-01 -1.807075466E-01 -1.786795166E-01 -1.766590388E-01
 -1.746957541E-01 -1.729107086E-01 -1.714957656E-01 -1.707342920E-01 -1.710668264E-01
 -1.732777674E-01 -1.789561804E-01 -1.912482825E-01 -2.290468129E-01 -2.144774732E-01
 -2.066819483E-01 -2.031941810E-01 -2.022912409E-01 -2.029718811E-01 -2.046270807E-01
 -2.068505196E-01 -2.093595928E-01 -2.119650897E-01 -2.145600289E-01 -2.170341814E-01
 -2.189685599E-01 -2.203614919E-01 -2.212764897E-01 -2.217826673E-01 -2.219497831E-01
 -2.218244835E-01 -2.213624825E-01 -2.204927570E-01 -2.191443572E-01 -2.172512538E-01
 -2.148142786E-01 -2.122495498E-01 -2.096602187E-01 -2.071490870E-01 -2.049025620E-01
 -2.032033848E-01 -2.024625321E-01 -2.032984994E-01 -2.067252362E-01 -2.144783490E-01
 -2.290468129E-01 -2.666000742E-01 -2.499063860E-01 -2.400798360E-01 -2.353052037E-01
 -2.338161287E-01 -2.344155451E-01 -2.363172307E-01 -2.389793115E-01 -2.420193512E-01
 -2.451745636E-01 -2.482789235E-01 -2.512360289E-01 -2.536543162E-01 -2.554051885E-01
 -2.565611634E-01 -2.572037398E-01 -2.574167154E-01 -2.572567362E-01 -2.566699658E-01
 -2.555710171E-01 -2.538761247E-01 -2.515097152E-01 -2.486023358E-01 -2.455371408E-01
 -2.424037804E-01 -2.393627822E-01 -2.366730130E-01 -2.347165458E-01 -2.340405931E-01
 -2.354430581E-01 -2.401373349E-01 -2.499070800E-01 -2.666000742E-01 -3.038678535E-01
 -2.851870009E-01 -2.734239739E-01 -2.673593109E-01 -2.652526077E-01 -2.657430269E-01
 -2.678709312E-01 -2.709538154E-01 -2.745035115E-01 -2.781793081E-01 -2.817548320E-01
 -2.850875067E-01 -2.879606174E-01 -2.900680359E-01 -2.914660752E-01 -2.922468196E-01
 -2.925065587E-01 -2.923110894E-01 -2.915978272E-01 -2.902685938E-01 -2.882286636E-01
 -2.854207265E-01 -2.821502906E-01 -2.786236360E-01 -2.749763535E-01 -2.714278409E-01
 -2.683134984E-01 -2.661202809E-01 -2.655364052E-01 -2.675353023E-01 -2.734980626E-01
 -2.851876303E-01 -3.038678535E-01 -3.408102435E-01 -3.202714341E-01 -3.066848509E-01
 -2.993621479E-01 -2.966335162E-01 -2.970036746E-01 -2.993460917E-01 -3.028352574E-01
 -3.068737792E-01 -3.110412996E-01 -3.150530226E-01 -3.187215861E-01 -3.218945805E-01
 -3.243510907E-01 -3.259882943E-01 -3.269066807E-01 -3.272133285E-01 -3.269821527E-01
 -3.261428082E-01 -3.245860798E-01 -3.222089871E-01 -3.191177037E-01 -3.155233130E-01
 -3.115709689E-01 -3.074397237E-01 -3.034057638E-01 -2.998824339E-01 -2.974646440E-01
 -2.969835908E-01 -2.995815643E-01 -3.067783298E-01 -3.202720827E-01 -3.408102435E-01
 -3.773876853E-01 -3.551157144E-01 -3.398265759E-01 -3.313023771E-01 -3.279700467E-01
 -3.282244393E-01 -3.307795257E-01 -3.346662229E-01 -3.391763867E-01 -3.438105101E-01
 -3.482293391E-01 -3.522095843E-01 -3.555895026E-01 -3.582542723E-01 -3.601200192E-01
 -3.611736940E-01 -3.615267640E-01 -3.612601709E-01 -3.602968638E-01 -3.585241855E-01
 -3.559560346E-01 -3.526708087E-01 -3.487773156E-01 -3.444293099E-01 -3.398404916E-01
 -3.353397313E-01 -3.314174857E-01 -3.287776514E-01 -3.283944780E-01 -3.315714957E-01
 -3.399428667E-01 -3.551164504E-01 -3.773876853E-01 -4.135610110E-01 -3.896782944E-01
 -3.728107870E-01 -3.631591959E-01 -3.592604234E-01 -3.594186657E-01 -3.621953773E-01
 -3.664783719E-01 -3.714487795E-01 -3.765301541E-01 -3.813340092E-01 -3.856092209E-01
 -3.891904621E-01 -3.919775578E-01 -3.939302698E-01 -3.950661609E-01 -3.954542871E-01
 -3.951644004E-01 -3.941322433E-01 -3.922876332E-01 -3.896107361E-01 -3.861377574E-01
 -3.819626618E-01 -3.772421839E-01 -3.722166320E-01 -3.672622117E-01 -3.629439195E-01
 -3.600740383E-01 -3.597687825E-01 -3.634856208E-01 -3.729541704E-01 -3.896791866E-01
 -4.135610110E-01 -4.492914851E-01 -4.239191763E-01 -4.055986958E-01 -3.949070650E-01
 -3.904957338E-01 -3.905921970E-01 -3.936110649E-01 -3.982979223E-01 -4.037243491E-01
 -4.092404910E-01 -4.144145050E-01 -4.189746452E-01 -4.227560504E-01 -4.256727777E-01
 -4.277039232E-01 -4.288836207E-01 -4.292900666E-01 -4.289952951E-01 -4.279330908E-01
 -4.260239962E-01 -4.232315587E-01 -4.195726651E-01 -4.151269463E-01 -4.100501822E-01
 -4.046021413E-01 -3.992003790E-01 -3.944805153E-01 -3.913613757E-01 -3.910994965E-01
 -3.953001419E-01 -4.057746157E-01 -4.239203121E-01 -4.492914851E-01 -4.845408467E-01
 -4.577994381E-01 -4.381521610E-01 -4.265187434E-01 -4.216639948E-01 -4.217478044E-01
 -4.250416787E-01 -4.301497179E-01 -4.360359504E-01 -4.419816231E-01 -4.475177790E-01
 -4.523583764E-01 -4.563420815E-01 -4.593962692E-01 -4.615157147E-01 -4.627469146E-01
 -4.631745418E-01 -4.628722439E-01 -4.617725331E-01 -4.597894238E-01 -4.568741269E-01
 -4.530279370E-01 -4.483171594E-01 -4.428936773E-01 -4.370304716E-01 -4.311801106E-01
 -4.260439216E-01 -4.226445025E-01 -4.223770004E-01 -4.269900561E-01 -4.383676073E-01
 -4.578009486E-01 -4.845408467E-01 -5.192713499E-01 -4.912809858E-01 -4.704341922E-01
 -4.579672536E-01 -4.527530947E-01 -4.528886018E-01 -4.565034736E-01 -4.620605019E-01
 -4.684187334E-01 -4.747958337E-01 -4.806922121E-01 -4.858132462E-01 -4.900035907E-01
 -4.932031587E-01 -4.954195799E-01 -4.967087326E-01 -4.971599032E-01 -4.968478395E-01
 -4.957043141E-01 -4.936387760E-01 -4.905931821E-01 -4.865561558E-01 -4.815815709E-01
 -4.758150881E-01 -4.695372868E-01 -4.632292018E-01 -4.576521280E-01 -4.539289722E-01
 -4.535921009E-01 -4.585312484E-01 -4.706982000E-01 -4.912830748E-01 -5.192713499E-01
 -5.534458042E-01 -5.243264298E-01 -5.024092244E-01 -4.892272941E-01 -4.837531676E-01
 -4.840209605E-01 -4.880169222E-01 -4.940617771E-01 -5.009126150E-01 -5.077296109E-01
 -5.139893439E-01 -5.193940246E-01 -5.237965971E-01 -5.271490527E-01 -5.294699282E-01
 -5.308223966E-01 -5.312990336E-01 -5.309752704E-01 -5.297825783E-01 -5.276272835E-01
 -5.244442985E-01 -5.202116502E-01 -5.149713860E-01 -5.088608107E-01 -5.021628330E-01
 -4.953801280E-01 -4.893274455E-01 -4.852239531E-01 -4.847384593E-01 -4.899020253E-01
 -5.027334979E-01 -5.243294094E-01 -5.534458042E-01 -5.870276149E-01 -5.568990365E-01
 -5.340432434E-01 -5.202763550E-01 -5.146587119E-01 -5.151572799E-01 -5.196096742E-01
 -5.261925797E-01 -5.335646545E-01 -5.408356169E-01 -5.474655660E-01 -5.531590185E-01
 -5.577796618E-01 -5.612916049E-01 -5.637230791E-01 -5.651431623E-01 -5.656467589E-01
 -5.653096109E-01 -5.640632851E-01 -5.618120775E-01 -5.584853909E-01 -5.540520270E-01
 -5.485423525E-01 -5.420830821E-01 -5.349541917E-01 -5.276727012E-01 -5.210993877E-01
 -5.165449971E-01 -5.158148176E-01 -5.210844129E-01 -5.344429665E-01 -5.569033669E-01
 -5.870276149E-01 -6.199808218E-01 -5.889627294E-01 -5.653039799E-01 -5.510959012E-01
 -5.454709057E-01 -5.463190371E-01 -5.513197745E-01 -5.585024139E-01 -5.664314994E-01
 -5.741746518E-01 -5.811837581E-01 -5.871715432E-01 -5.920152873E-01 -5.956918048E-01
 -5.982384407E-01 -5.997292938E-01 -6.002608801E-01 -5.999088845E-01 -5.986053621E-01
 -5.962534393E-01 -5.927780572E-01 -5.881395634E-01 -5.823562901E-01 -5.755418015E-01
 -5.679675511E-01 -5.601568109E-01 -5.530077136E-01 -5.479169935E-01 -5.468273434E-01
 -5.520655086E-01 -5.657988333E-01 -5.889690800E-01 -6.199808218E-01 -6.522701376E-01
 -6.204821433E-01 -5.961611651E-01 -5.816728079E-01 -5.762004135E-01 -5.775404606E-01
 -5.831994308E-01 -5.910545586E-01 -5.995820225E-01 -6.078176887E-01 -6.152149124E-01
 -6.215013018E-01 -6.265711418E-01 -6.304150756E-01 -6.330794763E-01 -6.346429359E-01
 -6.352030039E-01 -6.348349230E-01 -6.334716442E-01 -6.310158535E-01 -6.273887365E-01
 -6.225424921E-01 -6.164825818E-01 -6.093063857E-01 -6.012706103E-01 -5.928954664E-01
 -5.851059492E-01 -5.793776972E-01 -5.777924852E-01 -5.828391449E-01 -5.967766389E-01
 -6.204914769E-01 -6.522701376E-01 -6.838609863E-01 -6.514227125E-01 -6.265871048E-01
 -6.120015249E-01 -6.068713266E-01 -6.088733869E-01 -6.153197053E-01 -6.239299145E-01
 -6.331001688E-01 -6.418478935E-01 -6.496395961E-01 -6.562255198E-01 -6.615209916E-01
 -6.655320569E-01 -6.683143707E-01 -6.699506965E-01 -6.705390945E-01 -6.701539358E-01
 -6.687295119E-01 -6.661687444E-01 -6.623895700E-01 -6.573360285E-01 -6.509994770E-01
 -6.434575561E-01 -6.349451074E-01 -6.259682326E-01 -6.174656244E-01 -6.109822038E-01
 -6.087407385E-01 -6.134081812E-01 -6.273560944E-01 -6.514364107E-01 -6.838609863E-01
 -7.147195395E-01 -6.817508031E-01 -6.565575908E-01 -6.420873369E-01 -6.375267709E-01
 -6.403938097E-01 -6.477764085E-01 -6.572314407E-01 -6.670879083E-01 -6.763624456E-01
 -6.845490587E-01 -6.914296402E-01 -6.969451604E-01 -7.011189119E-01 -7.040162293E-01
 -7.057237804E-01 -7.063395789E-01 -7.059366298E-01 -7.044510619E-01 -7.017867334E-01
 -6.978587805E-01 -6.926029403E-01 -6.859950039E-01 -6.780888636E-01 -6.690893358E-01
 -6.594750883E-01 -6.501814964E-01 -6.428088910E-01 -6.397219550E-01 -6.437878691E-01
 -6.575223658E-01 -6.817708380E-01 -7.147195395E-01 -7.448127531E-01 -7.114338742E-01
 -6.860537099E-01 -6.719518019E-01 -6.682375006E-01 -6.722110316E-01 -6.806975266E-01