/*--------------------------------*- C++ -*----------------------------------*\
| =========                 |                                                 |
| \\      /  F ield         | OpenFOAM: The Open Source CFD Toolbox           |
|  \\    /   O peration     | Version:  2.2.1                                 |
|   \\  /    A nd           | Web:      www.OpenFOAM.org                      |
|    \\/     M anipulation  |                                                 |
\*---------------------------------------------------------------------------*/
FoamFile {
  version     2.0;
  format      ascii;
  class       volSymmTensorField;
  location    "50/subMat1";
  object      k_abl_sym;
}
// * * * * * * * * * * * * * * * * * * * * * * * * * * * * * * * * * * * * * //

dimensions      [1 1 -3 -1 0 0 0];

internalField   uniform (1 0 0 1 0 1);

boundaryField {
  top
  {
    type            zeroGradient;
  }
  bottom
  {
    type            zeroGradient;
  }
  subMat1_to_porousMat
  {
    type		    zeroGradient;
  }
}


// ************************************************************************* //
