/*--------------------------------*- C++ -*----------------------------------*\
  =========                 |
  \\      /  F ield         | OpenFOAM: The Open Source CFD Toolbox
   \\    /   O peration     | Website:  https://openfoam.org
    \\  /    A nd           | Version:  7
     \\/     M anipulation  |
\*---------------------------------------------------------------------------*/
FoamFile
{
    version     2.0;
    format      ascii;
    class       volVectorField;
    location    "0";
    object      U;
}
// * * * * * * * * * * * * * * * * * * * * * * * * * * * * * * * * * * * * * //

dimensions      [0 1 -1 0 0 0 0];

internalField   uniform (0 0 0);

boundaryField
{
   
   upwindTube_inlet
    {
    type            pressureInletVelocity;
    value           uniform ( 0 0 0 );
    
    }


    upwindTube_top
    {
     type           noSlip;
    }

   

     upwindTube_to_porousMat
    {
    
// Coupled velocity simulation
    type            fixedValueToNbrValue;
    nbr             U;
    value	    uniform ( 0 0 0 );

    }

    upwindTubewedge_neg
    {
    type            wedge;
    }

    upwindTubewedge_pos 
    {
    type            wedge;
    }

    emptycenter
    {
    type           empty;
    }


    
}


// ************************************************************************* //
