/*--------------------------------*- C++ -*----------------------------------*\
| =========                 |                                                 |
| \\      /  F ield         | OpenFOAM: The Open Source CFD Toolbox           |
|  \\    /   O peration     | Version:  2.2.1                                 |
|   \\  /    A nd           | Web:      www.OpenFOAM.org                      |
|    \\/     M anipulation  |                                                 |
\*---------------------------------------------------------------------------*/
FoamFile
{
    version     2.0;
    format      ascii;
    class       volVectorField;
    location    "0";
    object      cellMotionU;
}
// * * * * * * * * * * * * * * * * * * * * * * * * * * * * * * * * * * * * * //

dimensions      [0 1 -1 0 0 0 0];

internalField   uniform (0 0 0);

boundaryField
{
    top
    {
        type            slip;
    }

    outlet
    {
        type            fixedValue;
        value           uniform (0 0 0);
    }

    front_bottom
    {
        type            slip;
    }

    back_bottom
    {
        type            slip;
    }

    left_wall
    {
        type            slip;
    }

    obstacle
    {
        type            slip;
    }

    inlet1
    {
        type            fixedValue;
        value           uniform (0 0 0);
    }

    nozzle
    {
        type            slip;
    }

    top_nozzle
    {
        type            slip;
    }

    bottom_nozzle
    {
        type            slip;
    }

    flow_to_porousMat
    {
        type            fixedValue;
        value           uniform (0 0 0);
    }

    defaultFaces
    {
        type            empty;
    }
}



// ************************************************************************* //
