/*--------------------------------*- C++ -*----------------------------------*\
| =========                 |                                                 |
| \\      /  F ield         | OpenFOAM: The Open Source CFD Toolbox           |
|  \\    /   O peration     | Version:  5.0                                   |
|   \\  /    A nd           | Web:      www.OpenFOAM.org                      |
|    \\/     M anipulation  |                                                 |
\*---------------------------------------------------------------------------*/
FoamFile {
  version     2.0;
  format      ascii;
  class       volScalarField;
  location    "0.004";
  object      p;
}
// * * * * * * * * * * * * * * * * * * * * * * * * * * * * * * * * * * * * * //

dimensions      [1 -1 -2 0 0 0 0];

internalField   nonuniform List<scalar>
48115
(
    5299.72
    5385.1
    5402.26
    5403.57
    5424.27
    5437.45
    5421.9
    5463.2
    5641.93
    6266.23
    7284.16
    8592.41
    9913.05
    11086.7
    11847.7
    12284.4
    12460
    12527.2
    12593.7
    12684.3
    12778.3
    12849.2
    12914.9
    12978.2
    13055.5
    13078.4
    13099.8
    13102.6
    13113.2
    13176.4
    5206.16
    5297.94
    5352.04
    5390.97
    5416.16
    5424.03
    5411.08
    5435.24
    5537.57
    6078.19
    7170.79
    8725.11
    10108.4
    11244.6
    11965.7
    12321
    12449.2
    12510.9
    12576.9
    12653.7
    12723.4
    12794.8
    12855.4
    12916.6
    12992.8
    13034.7
    13064.7
    13076.2
    13076.4
    13091
    5153.89
    5215.4
    5302.51
    5372.48
    5398.67
    5411.55
    5419.21
    5420.45
    5464.26
    5782.3
    6727.96
    8283.17
    9876.68
    11267.4
    11955.7
    12304.8
    12471.1
    12544.7
    12581.8
    12624.3
    12672.1
    12728.7
    12797.2
    12869.9
    12931.7
    12966
    13009.7
    13031
    13042.7
    13067.9
    5127.33
    5145.87
    5202.14
    5279.59
    5333.81
    5371.5
    5401.19
    5400.6
    5428.94
    5550.5
    6064.96
    7349.75
    9450.5
    10951.4
    12052.1
    12361.4
    12471.8
    12523.1
    12593
    12671.4
    12731.9
    12804
    12873.4
    12938.7
    12969
    12955.3
    13015.5
    13046.8
    13061.8
    13010.1
    5116.7
    5115.13
    5130.84
    5171.85
    5235.26
    5304.07
    5364.83
    5371.56
    5390.33
    5439.72
    5628.56
    6275.14
    7960.58
    10475.7
    11690.8
    12390.4
    12506.4
    12559.7
    12605.6
    12668.5
    12737.9
    12809.3
    12885.9
    12973.8
    13048.5
    13053.4
    13109.3
    13127.1
    13137.9
    12950.9
    5110.49
    5103.52
    5097.35
    5106.33
    5133.97
    5182.09
    5256.17
    5315.72
    5344.78
    5372.16
    5435.62
    5671.14
    6444.56
    8430.97
    10900.2
    12112.8
    12617.3
    12667.3
    12635.6
    12691.4
    12731.5
    12798.7
    12857.8
    12925.2
    12981
    13001.4
    13075.9
    13087.1
    13117.8
    12837.5
    5115.57
    5094.6
    5079.88
    5074.54
    5079.66
    5096.43
    5133.06
    5191.76
    5253.28
    5298.35
    5343.99
    5428.09
    5617.27
    6562.53
    8872.4
    10831.4
    12473.2
    12702.8
    12615.1
    12702.5
    12772
    12842
    12906.1
    12971.8
    13016.6
    13027.7
    13112.6
    13093.1
    13143.1
    12697.6
    5119.94
    5097.37
    5076.25
    5056.3
    5049.22
    5051.7
    5060.66
    5083.48
    5125.78
    5178.64
    5233.12
    5288.49
    5420.12
    5686.87
    6751.13
    8946.94
    10924.9
    12729
    12791.4
    12745.8
    12794.7
    12869.5
    12902.3
    12969.1
    13027.9
    13057.2
    13139.5
    13173.4
    13241.2
    12579.6
    5118.88
    5100.05
    5078.75
    5057.59
    5033.56
    5025.16
    5019.34
    5024.37
    5036.21
    5062.95
    5102.55
    5150.1
    5219.35
    5336.46
    5645.89
    6801.44
    8853.68
    11020.9
    12647.1
    13012.2
    12935.9
    12826.5
    12834.9
    12944.7
    13073.6
    13122
    13112.8
    13122.2
    13255.3
    12509.8
    5118.6
    5100.06
    5080.44
    5061.67
    5038.36
    5018.78
    5001.15
    4993.92
    4988.58
    4993.73
    5007.22
    5032.08
    5070.46
    5128.33
    5237.33
    5575.29
    6589.93
    8621.21
    11090.1
    11955
    12979.1
    13011.5
    12956.3
    12900.7
    13120.7
    13195.6
    13081.2
    13065.4
    13185.5
    12456.5
    5118.35
    5099.2
    5080.49
    5061.49
    5042.73
    5021.6
    5000.42
    4981.32
    4968.44
    4957.76
    4955.74
    4961
    4973.81
    4994.79
    5022.77
    5108.17
    5388.45
    6259.37
    8421.89
    10301.7
    11596.6
    12928.7
    13152.4
    13097.8
    13133.4
    13204.7
    13020.8
    12951.1
    13083.1
    12551
    5118.57
    5099.33
    5080.52
    5061.47
    5042.88
    5023.46
    5004.05
    4982.2
    4964.24
    4947.73
    4934.05
    4926.93
    4920.79
    4923.57
    4939.52
    4957.8
    5025.41
    5232.27
    5958.52
    7802.75
    9647.05
    11543
    12593.1
    13161.2
    13354.6
    13288.8
    13048
    12923.3
    13160.9
    12821.9
    5118.13
    5098.57
    5079.54
    5060.33
    5041.8
    5022.85
    5004.5
    4985.31
    4965.87
    4947.11
    4929.49
    4913.15
    4899.57
    4889.56
    4889.13
    4900.86
    4914.26
    4956.26
    5096.13
    5661.38
    7016.56
    9120.17
    11324.8
    12290.1
    12585.3
    13089.9
    13088
    12929.1
    13011.2
    12923
    5139.8
    5120.33
    5101.19
    5081.89
    5063.09
    5044.11
    5025.69
    5007.35
    4988.86
    4969.71
    4950.9
    4932.11
    4915.47
    4900.91
    4888.8
    4881.03
    4870.15
    4874.76
    4898.11
    4997.35
    5346.51
    6342.37
    8499.01
    10688.3
    11538.3
    12186.8
    12947.3
    13066.3
    13139.6
    13234.4
    5126.16
    5106.59
    5087.82
    5068.42
    5049.97
    5030.76
    5012.58
    4993.77
    4975.86
    4956.74
    4938.69
    4919.51
    4902.22
    4885.34
    4870.17
    4853.72
    4841.57
    4829.01
    4827.12
    4838.98
    4899.54
    5118.06
    5822.24
    7701.25
    9590.43
    10866.4
    12167.2
    12734.9
    13054.6
    13276
    5121.27
    5101.89
    5083.2
    5064.03
    5045.56
    5026.5
    5008.19
    4989.35
    4971.42
    4952.74
    4934.86
    4915.98
    4898.11
    4879.69
    4863.27
    4844.75
    4830.3
    4814.9
    4809.12
    4805.49
    4812.24
    4845.89
    4976.91
    5426.81
    6737.76
    8342.71
    10516.9
    11883.2
    12380.9
    12717.5
    5144.44
    5125.14
    5106.14
    5087.11
    5068.37
    5049.52
    5030.92
    5012.24
    4993.89
    4975.51
    4957.39
    4939.1
    4920.96
    4902.66
    4884.94
    4867.02
    4849.85
    4833.14
    4817.84
    4806.58
    4789.09
    4787.89
    4802.14
    4871.6
    5137.92
    5813.49
    7265.39
    9694.75
    11051.8
    11989
    5126.3
    5107.03
    5088.01
    5069.11
    5050.41
    5031.79
    5013.24
    4994.85
    4976.5
    4958.43
    4940.31
    4922.48
    4904.39
    4886.71
    4868.64
    4851.44
    4833.28
    4816.78
    4798.83
    4784.7
    4768.6
    4757.61
    4745.2
    4749.51
    4784.49
    4913.66
    5259.38
    6487.03
    8536.34
    10445.4
    5122.99
    5103.87
    5084.88
    5066.06
    5047.32
    5028.77
    5010.2
    4991.86
    4973.47
    4955.42
    4937.27
    4919.49
    4901.48
    4883.88
    4865.92
    4848.57
    4830.74
    4813.52
    4795.9
    4778.99
    4763.63
    4748.22
    4737.59
    4728.1
    4729.99
    4744.2
    4800.81
    5038.79
    5798.89
    7541.84
    5147.07
    5127.86
    5108.73
    5089.77
    5070.9
    5052.19
    5033.52
    5015.03
    4996.59
    4978.35
    4960.17
    4942.17
    4924.21
    4906.4
    4888.68
    4871.03
    4853.58
    4835.97
    4818.75
    4801.04
    4784.36
    4767.38
    4751.94
    4737.13
    4724.47
    4707.56
    4712.83
    4745.31
    4864.99
    5420.62
    5125.59
    5106.43
    5087.27
    5068.45
    5049.62
    5031.1
    5012.51
    4994.18
    4975.83
    4957.77
    4939.69
    4921.87
    4904.04
    4886.38
    4868.8
    4851.34
    4834.05
    4816.75
    4799.63
    4782.41
    4765.48
    4748.49
    4732.07
    4716.14
    4700.78
    4688.15
    4675.63
    4668.62
    4678.79
    4792.46
    5123.75
    5104.78
    5085.74
    5067.01
    5048.2
    5029.72
    5011.12
    4992.81
    4974.43
    4956.37
    4938.24
    4920.46
    4902.55
    4884.96
    4867.26
    4849.93
    4832.45
    4815.42
    4798.01
    4781.23
    4763.85
    4747.35
    4729.89
    4714.32
    4696.69
    4683.55
    4667.93
    4658.85
    4654.39
    4669.67
    5148.98
    5129.84
    5110.68
    5091.76
    5072.84
    5054.19
    5035.49
    5017.03
    4998.53
    4980.32
    4962.07
    4944.14
    4926.12
    4908.39
    4890.55
    4873.11
    4855.5
    4838.36
    4820.91
    4804.02
    4786.7
    4770.06
    4752.76
    4736.41
    4719.19
    4703.09
    4686.72
    4672.24
    4652.74
    4646.75
    5124.38
    5105.34
    5086.06
    5067.33
    5048.37
    5030
    5011.31
    4993.16
    4974.66
    4956.75
    4938.47
    4920.87
    4902.84
    4885.43
    4867.55
    4850.43
    4832.78
    4815.93
    4798.52
    4781.89
    4764.63
    4748.27
    4731.15
    4714.92
    4698.09
    4681.95
    4665.21
    4650.15
    4633.22
    4620.46
    5123.63
    5104.8
    5085.74
    5067.11
    5048.24
    5029.89
    5011.27
    4993.11
    4974.64
    4956.69
    4938.45
    4920.79
    4902.8
    4885.32
    4867.49
    4850.27
    4832.69
    4815.72
    4798.42
    4781.63
    4764.52
    4747.98
    4731.07
    4714.63
    4698.02
    4681.7
    4665.11
    4649.3
    4633.01
    4617.47
    5150.6
    5131.48
    5112.35
    5093.42
    5074.52
    5055.87
    5037.23
    5018.78
    5000.32
    4982.08
    4963.85
    4945.88
    4927.9
    4910.12
    4892.32
    4874.77
    4857.24
    4839.94
    4822.68
    4805.59
    4788.52
    4771.66
    4754.83
    4738.15
    4721.56
    4705.08
    4688.6
    4672.3
    4656.08
    4639.9
    5123.08
    5103.91
    5084.75
    5065.89
    5047.07
    5028.55
    5010.05
    4991.77
    4973.46
    4955.38
    4937.3
    4919.5
    4901.69
    4884.08
    4866.45
    4849.06
    4831.7
    4814.56
    4797.47
    4780.55
    4763.65
    4746.96
    4730.29
    4713.78
    4697.32
    4681.05
    4664.71
    4648.62
    4632.5
    4616.77
    5122.65
    5103.73
    5084.86
    5066.14
    5047.46
    5028.99
    5010.56
    4992.28
    4974.03
    4955.93
    4937.9
    4920.07
    4902.3
    4884.67
    4867.08
    4849.67
    4832.34
    4815.18
    4798.12
    4781.18
    4764.3
    4747.59
    4730.93
    4714.41
    4697.96
    4681.68
    4665.36
    4649.28
    4633.15
    4617.06
    5152.08
    5132.91
    5113.85
    5094.89
    5076.03
    5057.32
    5038.72
    5020.24
    5001.85
    4983.58
    4965.43
    4947.43
    4929.54
    4911.76
    4894.07
    4876.51
    4859.07
    4841.76
    4824.57
    4807.48
    4790.49
    4773.61
    4756.84
    4740.17
    4723.6
    4707.13
    4690.74
    4674.47
    4658.27
    4642.18
    5121.33
    5102.06
    5082.92
    5063.96
    5045.19
    5026.61
    5008.21
    4989.95
    4971.81
    4953.78
    4935.89
    4918.12
    4900.48
    4882.91
    4865.45
    4848.07
    4830.84
    4813.68
    4796.69
    4779.74
    4762.94
    4746.19
    4729.63
    4713.06
    4696.73
    4680.33
    4664.24
    4647.97
    4632.18
    4616.14
    5120.19
    5101.2
    5082.39
    5063.65
    5045.07
    5026.59
    5008.27
    4990.04
    4971.93
    4953.88
    4935.97
    4918.15
    4900.46
    4882.82
    4865.3
    4847.85
    4830.54
    4813.32
    4796.25
    4779.23
    4762.38
    4745.56
    4728.94
    4712.32
    4695.93
    4679.49
    4663.32
    4647.03
    4631.11
    4614.74
    5150.33
    5131.22
    5112.3
    5093.53
    5074.92
    5056.41
    5038.03
    5019.72
    5001.5
    4983.34
    4965.27
    4947.29
    4929.4
    4911.59
    4893.87
    4876.26
    4858.76
    4841.38
    4824.13
    4806.99
    4789.97
    4773.06
    4756.28
    4739.59
    4723.04
    4706.56
    4690.19
    4673.94
    4657.68
    4641.77
    5109.25
    5090.34
    5071.6
    5052.95
    5034.45
    5016.04
    4997.75
    4979.54
    4961.45
    4943.42
    4925.54
    4907.72
    4890.06
    4872.46
    4855.02
    4837.63
    4820.43
    4803.3
    4786.33
    4769.45
    4752.71
    4736.03
    4719.55
    4703.05
    4686.8
    4670.49
    4654.43
    4638.33
    4622.24
    4607.15
    5106.78
    5087.52
    5068.4
    5049.44
    5030.66
    5012.05
    4993.62
    4975.34
    4957.23
    4939.24
    4921.42
    4903.69
    4886.13
    4868.63
    4851.29
    4834
    4816.88
    4799.82
    4782.91
    4766.07
    4749.37
    4732.7
    4716.25
    4699.74
    4683.53
    4667.16
    4651.16
    4634.94
    4619.16
    4603.02
    5112.39
    5093.36
    5074.52
    5055.78
    5037.16
    5018.68
    5000.36
    4982.17
    4964.15
    4946.23
    4928.48
    4910.82
    4893.31
    4875.87
    4858.57
    4841.34
    4824.25
    4807.24
    4790.34
    4773.54
    4756.83
    4740.2
    4723.73
    4707.25
    4690.99
    4674.66
    4658.57
    4642.43
    4626.5
    4610.2
    5153.76
    5134.6
    5115.54
    5096.57
    5077.69
    5058.91
    5040.25
    5021.7
    5003.28
    4984.98
    4966.81
    4948.77
    4930.85
    4913.05
    4895.37
    4877.81
    4860.37
    4843.06
    4825.86
    4808.79
    4791.82
    4774.97
    4758.24
    4741.6
    4725.08
    4708.64
    4692.28
    4676.05
    4659.84
    4643.68
    5114.43
    5095.27
    5076.24
    5057.34
    5038.6
    5019.99
    5001.53
    4983.19
    4964.99
    4946.89
    4928.92
    4911.06
    4893.33
    4875.69
    4858.2
    4840.78
    4823.53
    4806.39
    4789.37
    4772.48
    4755.7
    4739.02
    4722.52
    4706.05
    4689.77
    4673.51
    4657.4
    4641.35
    4625.39
    4609.67
    5113.98
    5095.11
    5076.45
    5057.84
    5039.35
    5020.94
    5002.64
    4984.44
    4966.35
    4948.34
    4930.44
    4912.63
    4894.95
    4877.33
    4859.87
    4842.48
    4825.25
    4808.13
    4791.15
    4774.27
    4757.53
    4740.88
    4724.41
    4707.99
    4691.75
    4675.54
    4659.46
    4643.47
    4627.58
    4611.55
    5154.51
    5135.42
    5116.46
    5097.61
    5078.88
    5060.26
    5041.76
    5023.38
    5005.11
    4986.92
    4968.83
    4950.83
    4932.94
    4915.12
    4897.42
    4879.81
    4862.31
    4844.94
    4827.68
    4810.52
    4793.49
    4776.56
    4759.79
    4743.1
    4726.55
    4710.1
    4693.71
    4677.48
    4661.28
    4645.18
    5109.95
    5090.87
    5071.93
    5053.09
    5034.48
    5015.99
    4997.68
    4979.49
    4961.46
    4943.5
    4925.66
    4907.92
    4890.32
    4872.74
    4855.33
    4837.95
    4820.73
    4803.57
    4786.56
    4769.57
    4752.76
    4735.96
    4719.37
    4702.84
    4686.48
    4670.15
    4653.92
    4637.8
    4621.81
    4605.99
    5108.76
    5089.88
    5071.25
    5052.67
    5034.29
    5016.01
    4997.86
    4979.82
    4961.92
    4944.06
    4926.3
    4908.64
    4891.11
    4873.58
    4856.2
    4838.86
    4821.66
    4804.5
    4787.51
    4770.5
    4753.69
    4736.86
    4720.26
    4703.73
    4687.35
    4671.01
    4654.74
    4638.6
    4622.61
    4606.4
    5153.46
    5134.42
    5115.54
    5096.74
    5078.09
    5059.58
    5041.16
    5022.84
    5004.63
    4986.49
    4968.42
    4950.45
    4932.64
    4914.86
    4897.17
    4879.58
    4862.09
    4844.69
    4827.38
    4810.15
    4793.04
    4775.98
    4759.09
    4742.34
    4725.68
    4709.09
    4692.52
    4676.11
    4659.75
    4643.48
    5101.61
    5082.6
    5063.81
    5045.03
    5026.44
    5007.97
    4989.62
    4971.27
    4953.11
    4934.97
    4917.01
    4899.04
    4881.42
    4863.8
    4846.38
    4828.93
    4811.74
    4794.57
    4777.53
    4760.45
    4743.72
    4726.84
    4710.11
    4693.59
    4677.27
    4660.75
    4644.24
    4627.87
    4611.71
    4595.81
    5100.35
    5081.22
    5062.43
    5043.63
    5025.04
    5006.56
    4988.3
    4969.91
    4951.79
    4933.65
    4915.78
    4897.79
    4880.2
    4862.62
    4845.29
    4827.78
    4810.56
    4793.35
    4776.28
    4759.03
    4742.28
    4725.34
    4708.49
    4691.78
    4675.52
    4658.87
    4642.11
    4625.54
    4609.52
    4593.43
    5143.75
    5124.57
    5105.63
    5086.79
    5068.06
    5049.47
    5031.1
    5012.61
    4994.24
    4975.99
    4958.06
    4940.06
    4922.21
    4904.52
    4887.08
    4869.43
    4851.66
    4833.97
    4816.49
    4798.89
    4781.58
    4764.36
    4747.2
    4729.96
    4713.35
    4696.85
    4680.05
    4663.2
    4647.45
    4632.12
    5072.74
    5054.06
    5035.92
    5017.93
    5000.14
    4982.05
    4964.62
    4946.96
    4929.58
    4911.73
    4894.39
    4876.89
    4859.65
    4841.97
    4824.64
    4807.22
    4789.86
    4772.53
    4755.86
    4738.97
    4722.62
    4706.51
    4690.65
    4673.55
    4658.2
    4645.04
    4633.19
    4619.66
    4608.13
    4598.86
    5073.7
    5055.02
    5036.38
    5018.27
    5000.47
    4982.05
    4964.03
    4947.13
    4930.99
    4913.7
    4895.32
    4877.24
    4860.37
    4843.19
    4826.14
    4810.22
    4795.43
    4780.6
    4765.39
    4749.86
    4735.2
    4722.19
    4708.31
    4694.22
    4681.45
    4671.52
    4662.34
    4650.97
    4636.96
    4625.19
    5067.21
    5050.16
    5030.69
    5009.7
    4992.4
    4975.8
    4956.91
    4938.77
    4925.9
    4912.95
    4895.86
    4877.44
    4866.44
    4856.61
    4843.01
    4831.26
    4825.24
    4820.51
    4811.66
    4801.38
    4795.86
    4794.37
    4791.7
    4781.95
    4772.08
    4766.59
    4765.8
    4768.55
    4764.55
    4752.2
    5064.97
    5047.62
    5029.9
    5019.12
    5012.4
    5009.95
    5008.33
    5004.5
    5001.02
    4998.33
    4992.96
    4986.39
    4982.08
    4976.63
    4968.38
    4959.49
    4953.43
    4949.18
    4943.8
    4937.71
    4933.48
    4934.26
    4934.83
    4931.44
    4925.37
    4919.23
    4917.14
    4920.78
    4919.73
    4909.99
    5037.58
    5137.86
    5224.93
    5323.92
    5365.41
    5368.03
    5350.15
    5323.08
    5293.65
    5264.27
    5236.72
    5214.08
    5196.18
    5177.58
    5158.13
    5140.79
    5124.47
    5106.45
    5088.25
    5072.23
    5059.4
    5045.51
    5030.57
    5015.82
    5003.27
    4993.29
    4982.89
    4971.44
    4961.61
    4950.84
    13012.7
    13086.6
    13143.1
    13184.1
    13225.7
    13272.1
    13325.5
    13384
    13446.5
    13514.3
    13585.8
    13659.2
    13739.4
    13829
    13928.8
    14036.8
    14145.3
    14248.8
    14351.9
    14458.9
    14570.8
    14698.5
    14842.3
    14984
    15105.9
    15211.6
    15316
    15445.7
    15599.7
    15746.3
    15886.1
    15998.1
    16068.7
    16111
    16163.2
    16236.6
    16292.1
    16300.5
    16275.7
    16249.1
    16241.6
    16247.6
    16253.8
    16250.3
    16228.5
    16186
    16129.3
    16067.8
    16004
    15934.6
    15852
    15750
    15623.7
    15464.9
    15267.5
    15009.1
    14674.2
    14176.3
    13510.6
    12974.8
    13055.6
    13128.4
    13170.8
    13207.1
    13246.4
    13290.4
    13341.1
    13398.2
    13459.1
    13525
    13596.3
    13676.9
    13765.8
    13859.3
    13957.2
    14061.3
    14172.4
    14287.5
    14401.9
    14515.1
    14625.3
    14735.4
    14853
    14984.8
    15128.8
    15277
    15420.8
    15540.8
    15635.9
    15729.8
    15828.3
    15931.6
    16027.3
    16095
    16144.2
    16197.1
    16258.3
    16305.2
    16322.4
    16317.1
    16305.1
    16291.6
    16275.6
    16255
    16226.7
    16186.4
    16133.1
    16070.4
    16001.2
    15925.2
    15836
    15727.6
    15594.5
    15429.8
    15228.8
    14968.2
    14630
    14119.5
    13462
    12940.3
    13079.2
    13132.1
    13170
    13200.3
    13232.2
    13270.2
    13319.5
    13378.7
    13447.9
    13525.1
    13605.6
    13686.7
    13767.5
    13849.9
    13934.4
    14024.7
    14127.1
    14246.2
    14374.1
    14503.1
    14625.8
    14731.2
    14821.6
    14920.1
    15052.9
    15236.8
    15473.1
    15683.2
    15783.1
    15820.8
    15843.3
    15883.3
    15956.3
    16036.5
    16090.5
    16119.5
    16156.7
    16219.5
    16285.1
    16328.9
    16348
    16344.2
    16322.4
    16290
    16253.7
    16214.5
    16167.7
    16109.6
    16040.7
    15961.1
    15868.8
    15755.7
    15617
    15446.2
    15239.6
    14978.1
    14644.6
    14149.8
    13471.6
    12928.9
    13101.6
    13153.8
    13189.5
    13215.3
    13246.9
    13286.1
    13332
    13385.8
    13446.3
    13517
    13599.4
    13694.9
    13798.8
    13904.2
    14005
    14100.6
    14196
    14301
    14420.2
    14550.4
    14688.8
    14820.1
    14929.9
    15023.8
    15117
    15229.3
    15399.7
    15595.3
    15750.4
    15866.5
    15940.6
    15989.8
    16049.3
    16118.4
    16161.6
    16169.8
    16170.6
    16194.5
    16240
    16284.4
    16307.8
    16307.1
    16285.9
    16250.9
    16210.2
    16168
    16118.9
    16058.4
    15983.6
    15897.3
    15796.2
    15677.9
    15534.6
    15361.7
    15155.8
    14896.8
    14565.1
    14091
    13409.6
    12973
    13142.9
    13171.1
    13195.1
    13210.3
    13240.9
    13285
    13339
    13396.3
    13458.5
    13526.9
    13601.4
    13678.8
    13764.5
    13863.5
    13970.8
    14078
    14177.4
    14267.9
    14359.7
    14462.7
    14584.4
    14724.4
    14866.1
    14995.7
    15117.5
    15234.8
    15365.3
    15529.8
    15661.7
    15786.3
    15903.9
    15992
    16068.6
    16145.7
    16198.8
    16217.2
    16231.4
    16259.6
    16294.4
    16314.9
    16316.4
    16302.5
    16280
    16252.4
    16223.1
    16192.7
    16154.5
    16101.2
    16030.7
    15943.3
    15841.1
    15721.5
    15579.6
    15410.9
    15209.2
    14959.4
    14638.6
    14193
    13491.3
    13080.7
    13181
    13165.7
    13183.9
    13205.2
    13245.2
    13299.4
    13362.1
    13431.3
    13502.7
    13573.9
    13639.7
    13710.2
    13790.7
    13885.5
    13996.8
    14118
    14241
    14354.7
    14454.7
    14551.1
    14655.4
    14776.4
    14914.9
    15052.8
    15184.9
    15304.9
    15415
    15535
    15657.5
    15777.2
    15893.9
    15991.5
    16062.7
    16132.2
    16204
    16240.3
    16250.5
    16259
    16269.7
    16275.7
    16272.8
    16261.1
    16244.7
    16219.3
    16187
    16151.1
    16108.3
    16054.2
    15984.3
    15899.1
    15797.2
    15679.9
    15540.8
    15378.8
    15184.4
    14943.1
    14624
    14213.1
    13494.7
    13152.8
    13261.2
    13160.4
    13182.2
    13208.9
    13236
    13271.5
    13322.4
    13389.2
    13470.3
    13560.3
    13651.3
    13733.6
    13805.4
    13880.4
    13968.4
    14075.2
    14198.7
    14326
    14441.3
    14544.1
    14642.6
    14749.1
    14882.1
    15033.9
    15184.3
    15326.5
    15449.2
    15554.8
    15666.7
    15775.5
    15876.3
    15976.2
    16046.4
    16100.7
    16178.6
    16239.9
    16256.5
    16259.7
    16262.1
    16262.9
    16260.8
    16253.8
    16245.9
    16227.8
    16195.7
    16155.7
    16109.5
    16053.9
    15986.2
    15905.1
    15809
    15697.4
    15566.6
    15412.5
    15224
    14994.7
    14683.3
    14306.6
    13619.6
    13309.1
    13362.3
    13148.6
    13210.7
    13248.7
    13287.8
    13323.3
    13359.3
    13404.3
    13464.3
    13542.6
    13634.3
    13731.7
    13823.1
    13904
    13982.9
    14073.2
    14182.4
    14309.7
    14439.2
    14554.6
    14661.1
    14758.6
    14868.8
    15012.4
    15169.3
    15329.4
    15474.7
    15580.7
    15673.5
    15767.1
    15843.7
    15926.5
    15995.7
    16043.6
    16121
    16209.3
    16239.9
    16248.6
    16260.6
    16271.4
    16272.5
    16266.1
    16259.3
    16237.9
    16196.5
    16147.5
    16096.4
    16041.1
    15977.9
    15903.9
    15814.1
    15710.4
    15584.2
    15439
    15250.2
    15039
    14753.3
    14403.6
    13790.8
    13470.6
    13461.4
    13150.8
    13186.5
    13227.6
    13286.7
    13342.3
    13388.4
    13426.3
    13466
    13519.9
    13601.8
    13704.1
    13808.9
    13904.9
    13991.1
    14071.5
    14160.6
    14271.6
    14401.2
    14522.5
    14633.7
    14723.6
    14812.3
    14941.5
    15094.7
    15259
    15428.8
    15542.6
    15627.9
    15739.4
    15806.4
    15865.7
    15943.8
    15986.8
    16044.5
    16144.6
    16192
    16206.7
    16230.9
    16258.4
    16261.7
    16263.8
    16255.1
    16227.8
    16184.2
    16135.1
    16083.6
    16030
    15969.9
    15902.5
    15818.6
    15721.9
    15602.8
    15463.2
    15288.7
    15092.5
    14825.7
    14510.2
    13972
    13661.8
    13524.1
    13176
    13166
    13183.9
    13240.8
    13322.7
    13400
    13454.2
    13488.7
    13522.2
    13577.9
    13661.2
    13760.8
    13861.7
    13949.3
    14023.2
    14096.7
    14185.4
    14307.5
    14429
    14536.2
    14632.1
    14715.8
    14836.7
    14995.2
    15139.9
    15304.6
    15442.1
    15527.3
    15652.6
    15756.7
    15799.6
    15892
    15952.8
    15992.3
    16081.6
    16142.5
    16160.8
    16188.1
    16228
    16244.7
    16252.7
    16244.6
    16216.6
    16179.9
    16140.3
    16094.7
    16040.8
    15977.3
    15905.9
    15824.9
    15732.7
    15619.6
    15484.6
    15322.3
    15131.8
    14895.1
    14629.3
    14160.5
    13871.5
    13490.6
    13301.5
    13193.7
    13155.8
    13186.9
    13262.1
    13351.8
    13417.6
    13448.6
    13470.2
    13501.6
    13558.6
    13648
    13749.2
    13837
    13909.5
    13984.9
    14069.4
    14195.7
    14335.3
    14443.9
    14543.8
    14609.3
    14693.3
    14843
    14964.2
    15091.2
    15257.9
    15360
    15486.3
    15671.7
    15726.2
    15803.6
    15899.2
    15934.4
    16021.9
    16105
    16112.7
    16123.8
    16150.3
    16156.8
    16156
    16146.7
    16140.6
    16130
    16110.6
    16076.1
    16024.3
    15962.6
    15898.4
    15827
    15741.3
    15636.1
    15510.9
    15362.9
    15195
    14998.4
    14767.2
    14352.6
    14115
    13285.7
    13348.1
    13227.5
    13118.3
    13117.1
    13157.5
    13222.6
    13288
    13328.8
    13353.7
    13384.8
    13441.3
    13531.2
    13629.5
    13712.7
    13785.1
    13872.2
    13968.8
    14075.6
    14203.2
    14300.5
    14384.3
    14443.7
    14501.6
    14634.4
    14763.5
    14855.9
    15004.7
    15113.1
    15211.8
    15420.8
    15551.5
    15613.2
    15745.7
    15797.8
    15863.1
    15969.7
    16011.2
    16044.2
    16097.3
    16125.4
    16134.7
    16132.4
    16122.1
    16106.5
    16079.1
    16038.8
    15993.7
    15946.6
    15893
    15832.8
    15756.8
    15665.2
    15551.4
    15419.3
    15265.5
    15083.3
    14875.5
    14514.8
    14328.3
    13028.8
    13138.9
    13157.8
    13143.6
    13139.8
    13133.7
    13137.7
    13159.4
    13188.5
    13209.7
    13235.3
    13275
    13341.9
    13435.2
    13530.6
    13602.7
    13665.5
    13739.8
    13833.3
    13962.4
    14092.8
    14180.1
    14252.5
    14304.8
    14414.8
    14582.3
    14658.2
    14775
    14904.9
    14985.7
    15158.7
    15365.2
    15438
    15583.3
    15687
    15760.4
    15870.8
    15885.7
    15894.8
    15946.8
    15987.8
    16009.4
    16031.1
    16053.9
    16058.8
    16042.5
    16012.2
    15970.6
    15920
    15864.6
    15806.9
    15738.6
    15665.6
    15571.4
    15461
    15327
    15176.1
    15000.7
    14688.4
    14536.8
    13106.2
    12997.3
    12943.9
    13023.8
    13109
    13103.3
    13074.2
    13049.4
    13064.6
    13081.9
    13104.1
    13140.9
    13196.5
    13269.1
    13332.7
    13377.2
    13426.2
    13508.6
    13622
    13750.8
    13899.9
    13985.2
    14041.2
    14062.4
    14117.8
    14271.8
    14363.2
    14452.8
    14606.7
    14701.7
    14839.1
    15081.2
    15186.4
    15316
    15494.6
    15585.8
    15757.4
    15792.1
    15817
    15887.1
    15901.7
    15910.5
    15934.9
    15943.2
    15947
    15951.7
    15944.2
    15924.6
    15896.6
    15859.3
    15816.6
    15761.7
    15696.5
    15607.8
    15508
    15389
    15251.6
    15090.6
    14815.2
    14688.1
    13158.3
    13008.1
    12956.9
    12927.4
    12934.6
    12944
    12924.1
    12903.3
    12946.1
    12977.8
    12986.4
    12992.1
    13006
    13050.5
    13117.2
    13175.6
    13211.5
    13263.2
    13350.7
    13452.3
    13578.1
    13686.6
    13756.5
    13791.5
    13835.8
    13970.3
    14088
    14160.2
    14312
    14431.6
    14548.5
    14776.9
    14910.8
    15018.6
    15204.7
    15319.7
    15476.5
    15590.8
    15631.6
    15745.5
    15784
    15803.6
    15859.8
    15876.6
    15887.8
    15886.6
    15887.1
    15873.3
    15832.1
    15787.2
    15757.3
    15727.4
    15691.5
    15631
    15547.5
    15437.4
    15316.3
    15173.8
    14942.4
    14805
    12845.2
    12964.6
    12913.8
    12831.8
    12839.3
    12854.6
    12843.8
    12855.5
    12887.9
    12865.4
    12837.9
    12830.3
    12825.9
    12853.9
    12928.5
    13002.8
    13029.3
    13043.9
    13084.3
    13143.8
    13237
    13359.7
    13447.3
    13511.1
    13560.6
    13675
    13837.8
    13904.1
    14020.6
    14165.5
    14261.5
    14444.6
    14619.3
    14705
    14878.5
    15026
    15172.5
    15368.4
    15440.1
    15552.8
    15620.5
    15637.7
    15702.1
    15754.9
    15791.8
    15809.6
    15816.1
    15800.4
    15772.4
    15744.1
    15722.7
    15690.1
    15649.2
    15597.6
    15537.2
    15457
    15357.8
    15227.1
    15036.3
    14894.3