/*--------------------------------*- C++ -*----------------------------------*\
| =========                 |                                                 |
| \\      /  F ield         | OpenFOAM: The Open Source CFD Toolbox           |
|  \\    /   O peration     | Version:  5.0                                   |
|   \\  /    A nd           | Web:      www.OpenFOAM.org                      |
|    \\/     M anipulation  |                                                 |
\*---------------------------------------------------------------------------*/
FoamFile {
  version     2.0;
  format      ascii;
  class       volScalarField;
  location    "0.004";
  object      rho_0;
}
// * * * * * * * * * * * * * * * * * * * * * * * * * * * * * * * * * * * * * //

dimensions      [1 -3 0 0 0 0 0];

internalField   nonuniform List<scalar>
48115
(
    0.0123304
    0.01232
    0.0122282
    0.0121218
    0.0120726
    0.0120241
    0.0119354
    0.0119652
    0.0122407
    0.0132371
    0.0147037
    0.0163853
    0.0179134
    0.0194772
    0.0208208
    0.0222082
    0.0240695
    0.0261782
    0.0280161
    0.0294672
    0.0305957
    0.031433
    0.0320556
    0.0324921
    0.0328028
    0.0328962
    0.0329062
    0.0327451
    0.0323964
    0.0319812
    0.0121765
    0.0122888
    0.0123016
    0.012292
    0.012267
    0.0122159
    0.0121307
    0.0121237
    0.0122513
    0.0130982
    0.0146839
    0.0167119
    0.0182206
    0.0196345
    0.0207871
    0.0219429
    0.0235615
    0.0255833
    0.0274671
    0.0289792
    0.030144
    0.0310545
    0.0317321
    0.0322211
    0.0325722
    0.032726
    0.0327671
    0.0326437
    0.0322969
    0.0317938
    0.0120648
    0.01217
    0.0123095
    0.0124113
    0.0124227
    0.0124077
    0.0123842
    0.0123479
    0.0123863
    0.0128888
    0.0143625
    0.0164935
    0.0182215
    0.0196484
    0.0205216
    0.0213464
    0.0224948
    0.0241208
    0.0258995
    0.027525
    0.0288847
    0.0299928
    0.0308946
    0.031596
    0.0320677
    0.032296
    0.0324174
    0.0323748
    0.0321192
    0.0316743
    0.0120125
    0.0120437
    0.012145
    0.0122835
    0.0123731
    0.012425
    0.0124622
    0.0124425
    0.0124758
    0.0126725
    0.0135425
    0.0155851
    0.0184811
    0.0197671
    0.0207172
    0.0210872
    0.0215882
    0.0224195
    0.0237095
    0.0252371
    0.0267576
    0.0281697
    0.0294133
    0.0304629
    0.0312044
    0.0315814
    0.0318794
    0.0319762
    0.0318618
    0.0313765
    0.0120047
    0.0120003
    0.0120279
    0.0121023
    0.0122185
    0.0123425
    0.0124497
    0.0124517
    0.0124765
    0.0125584
    0.0128893
    0.0140133
    0.0167613
    0.0203067
    0.0210067
    0.0213494
    0.0214273
    0.0216818
    0.0222147
    0.0231069
    0.0242736
    0.0255669
    0.0269279
    0.0283092
    0.0295532
    0.0303828
    0.0310023
    0.0313077
    0.0313828
    0.0308603
    0.0120233
    0.0120103
    0.0119978
    0.0120141
    0.0120643
    0.0121526
    0.0122895
    0.012398
    0.0124467
    0.0124929
    0.0126049
    0.0130274
    0.0143844
    0.0176531
    0.0211413
    0.0219786
    0.0219686
    0.0218448
    0.0218479
    0.0221856
    0.0226951
    0.0234697
    0.024439
    0.0256147
    0.0269138
    0.0280732
    0.0291211
    0.0298382
    0.0302852
    0.0298439
    0.0120844
    0.0120429
    0.0120135
    0.0120031
    0.0120122
    0.0120423
    0.0121093
    0.0122177
    0.012331
    0.012412
    0.0124944
    0.0126477
    0.0129836
    0.014654
    0.0184972
    0.0212035
    0.0229551
    0.0225168
    0.0220265
    0.0221318
    0.0222914
    0.0226166
    0.0230787
    0.0237587
    0.0246507
    0.0256323
    0.0267769
    0.0277949
    0.0287271
    0.0282615
    0.0121486
    0.0121035
    0.0120609
    0.0120215
    0.0120059
    0.0120103
    0.012026
    0.0120672
    0.0121452
    0.0122429
    0.0123431
    0.0124454
    0.0126868
    0.0131745
    0.0150735
    0.0187227
    0.0216169
    0.023831
    0.0231292
    0.0225921
    0.0224552
    0.0225602
    0.0226621
    0.0229422
    0.0233489
    0.0238899
    0.0246811
    0.0256394
    0.026797
    0.0262523
    0.0121898
    0.0121522
    0.0121097
    0.0120674
    0.0120187
    0.0120028
    0.011989
    0.011998
    0.0120191
    0.0120683
    0.012142
    0.0122308
    0.0123601
    0.0125794
    0.0131521
    0.0152211
    0.0187156
    0.0220586
    0.0241328
    0.0239893
    0.0233373
    0.0228164
    0.022695
    0.022816
    0.0230372
    0.0232421
    0.0234805
    0.023932
    0.0248683
    0.0242826
    0.0122164
    0.0121797
    0.0121409
    0.0121038
    0.0120574
    0.0120186
    0.0119828
    0.0119695
    0.0119567
    0.011966
    0.0119908
    0.0120372
    0.0121095
    0.0122189
    0.0124249
    0.0130552
    0.014901
    0.0184356
    0.022382
    0.0233001
    0.0244506
    0.0239525
    0.0234448
    0.0230466
    0.0231878
    0.0232716
    0.0231311
    0.0232246
    0.0236573
    0.0228972
    0.0122313
    0.0121938
    0.0121571
    0.0121198
    0.012083
    0.0120415
    0.0119995
    0.0119621
    0.0119363
    0.0119152
    0.0119101
    0.0119196
    0.0119436
    0.0119832
    0.0120359
    0.0121982
    0.0127257
    0.0143223
    0.018101
    0.0211539
    0.0230225
    0.0248427
    0.0246998
    0.0241362
    0.0237393
    0.0235306
    0.0231738
    0.0230465
    0.0232291
    0.0224707
    0.0122399
    0.0122025
    0.0121658
    0.0121287
    0.0120925
    0.0120546
    0.0120166
    0.0119735
    0.0119381
    0.0119058
    0.0118788
    0.0118652
    0.0118526
    0.0118576
    0.0118877
    0.011922
    0.0120511
    0.0124423
    0.0137761
    0.0170252
    0.0201378
    0.0232054
    0.0245872
    0.0250879
    0.0249388
    0.0244172
    0.0237438
    0.0233156
    0.0234742
    0.0227951
    0.0122431
    0.0122052
    0.0121682
    0.0121308
    0.0120948
    0.0120579
    0.0120221
    0.0119846
    0.0119466
    0.0119099
    0.0118755
    0.0118436
    0.0118168
    0.0117969
    0.0117953
    0.0118174
    0.011843
    0.0119235
    0.0121891
    0.0132324
    0.0156634
    0.0193147
    0.022916
    0.0242586
    0.0244478
    0.0249852
    0.0246776
    0.0240859
    0.0238523
    0.0232096
    0.0122865
    0.0122488
    0.0122117
    0.0121743
    0.0121377
    0.0121009
    0.0120651
    0.0120295
    0.0119936
    0.0119562
    0.0119193
    0.0118823
    0.0118494
    0.0118208
    0.011797
    0.0117818
    0.0117603
    0.0117691
    0.0118138
    0.0120028
    0.0126559
    0.0144592
    0.0182156
    0.0218301
    0.0231346
    0.0240955
    0.0251952
    0.0250971
    0.0248621
    0.0243626
    0.0122584
    0.0122206
    0.0121843
    0.0121467
    0.0121109
    0.0120737
    0.0120383
    0.0120018
    0.011967
    0.0119298
    0.0118946
    0.0118571
    0.0118232
    0.0117901
    0.0117605
    0.0117284
    0.0117043
    0.0116796
    0.0116754
    0.0116979
    0.0118138
    0.0122262
    0.0135056
    0.0167902
    0.0199956
    0.0221456
    0.0242965
    0.0250065
    0.0252823
    0.0251743
    0.0122452
    0.0122079
    0.0121718
    0.0121347
    0.012099
    0.012062
    0.0120266
    0.01199
    0.0119552
    0.0119189
    0.0118842
    0.0118474
    0.0118127
    0.0117767
    0.0117447
    0.0117085
    0.0116802
    0.01165
    0.0116388
    0.0116316
    0.0116447
    0.0117095
    0.0119581
    0.0127836
    0.015104
    0.017919
    0.0216361
    0.0237899
    0.0244986
    0.0247921
    0.0122886
    0.0122513
    0.0122146
    0.0121779
    0.0121416
    0.0121052
    0.0120692
    0.0120331
    0.0119975
    0.0119619
    0.0119268
    0.0118912
    0.011856
    0.0118205
    0.011786
    0.0117512
    0.0117178
    0.0116854
    0.0116556
    0.0116337
    0.0115996
    0.0115972
    0.0116244
    0.0117567
    0.0122542
    0.0134824
    0.0160551
    0.0201112
    0.0223758
    0.0238113
    0.0122517
    0.0122146
    0.0121779
    0.0121415
    0.0121053
    0.0120694
    0.0120335
    0.0119979
    0.0119623
    0.0119273
    0.0118921
    0.0118575
    0.0118223
    0.011788
    0.0117528
    0.0117193
    0.0116839
    0.0116518
    0.0116168
    0.0115892
    0.0115576
    0.0115359
    0.011511
    0.0115189
    0.0115857
    0.0118312
    0.0124712
    0.014629
    0.0181025
    0.0213079
    0.0122403
    0.0122035
    0.012167
    0.0121307
    0.0120946
    0.0120587
    0.0120228
    0.0119874
    0.0119518
    0.0119168
    0.0118816
    0.0118472
    0.0118122
    0.011778
    0.0117431
    0.0117094
    0.0116747
    0.0116411
    0.0116068
    0.0115737
    0.0115437
    0.0115134
    0.0114925
    0.0114738
    0.0114775
    0.011505
    0.0116132
    0.0120565
    0.013413
    0.0164093
    0.0122842
    0.0122472
    0.0122103
    0.0121738
    0.0121374
    0.0121013
    0.0120653
    0.0120295
    0.0119939
    0.0119586
    0.0119235
    0.0118886
    0.0118538
    0.0118193
    0.0117849
    0.0117506
    0.0117167
    0.0116825
    0.0116489
    0.0116145
    0.011582
    0.011549
    0.011519
    0.0114903
    0.0114657
    0.0114327
    0.0114429
    0.011505
    0.011731
    0.0127442
    0.0122413
    0.0122044
    0.0121676
    0.0121313
    0.012095
    0.0120593
    0.0120234
    0.011988
    0.0119525
    0.0119175
    0.0118825
    0.011848
    0.0118134
    0.0117792
    0.011745
    0.0117111
    0.0116775
    0.0116438
    0.0116105
    0.0115769
    0.0115439
    0.0115107
    0.0114787
    0.0114476
    0.0114175
    0.0113925
    0.0113686
    0.0113531
    0.0113725
    0.011589
    0.0122326
    0.0121962
    0.0121596
    0.0121236
    0.0120874
    0.0120518
    0.0120159
    0.0119806
    0.011945
    0.0119101
    0.011875
    0.0118406
    0.0118059
    0.0117718
    0.0117374
    0.0117038
    0.0116698
    0.0116367
    0.0116028
    0.0115701
    0.0115362
    0.0115041
    0.01147
    0.0114396
    0.0114051
    0.0113792
    0.0113487
    0.0113305
    0.0113218
    0.0113515
    0.0122785
    0.0122416
    0.0122047
    0.0121683
    0.0121319
    0.0120959
    0.0120599
    0.0120243
    0.0119886
    0.0119534
    0.0119181
    0.0118834
    0.0118486
    0.0118142
    0.0117797
    0.0117458
    0.0117117
    0.0116784
    0.0116445
    0.0116116
    0.0115779
    0.0115455
    0.0115118
    0.0114799
    0.0114463
    0.0114149
    0.011383
    0.011355
    0.0113167
    0.0113054
    0.0122299
    0.0121933
    0.0121562
    0.0121202
    0.0120837
    0.0120483
    0.0120122
    0.0119772
    0.0119414
    0.0119068
    0.0118715
    0.0118374
    0.0118025
    0.0117687
    0.011734
    0.0117008
    0.0116665
    0.0116338
    0.0115999
    0.0115675
    0.0115339
    0.011502
    0.0114686
    0.011437
    0.0114041
    0.0113726
    0.0113398
    0.0113104
    0.0112769
    0.0112523
    0.0122237
    0.0121876
    0.0121511
    0.0121153
    0.012079
    0.0120436
    0.0120077
    0.0119727
    0.0119371
    0.0119024
    0.0118671
    0.0118329
    0.0117981
    0.0117642
    0.0117297
    0.0116962
    0.0116621
    0.0116291
    0.0115955
    0.0115628
    0.0115295
    0.0114973
    0.0114643
    0.0114323
    0.0113998
    0.0113679
    0.0113355
    0.0113046
    0.0112726
    0.0112425
    0.0122731
    0.0122363
    0.0121995
    0.0121631
    0.0121267
    0.0120907
    0.0120548
    0.0120193
    0.0119836
    0.0119484
    0.0119132
    0.0118785
    0.0118437
    0.0118093
    0.0117748
    0.0117408
    0.0117068
    0.0116733
    0.0116397
    0.0116065
    0.0115733
    0.0115405
    0.0115077
    0.0114753
    0.0114429
    0.0114107
    0.0113786
    0.0113467
    0.011315
    0.0112835
    0.012219
    0.0121822
    0.0121454
    0.0121091
    0.0120729
    0.0120372
    0.0120015
    0.0119663
    0.0119309
    0.011896
    0.011861
    0.0118266
    0.0117921
    0.011758
    0.0117238
    0.0116901
    0.0116564
    0.0116231
    0.0115899
    0.011557
    0.0115241
    0.0114916
    0.0114591
    0.0114269
    0.0113948
    0.011363
    0.011331
    0.0112996
    0.011268
    0.0112375
    0.0122136
    0.0121773
    0.0121412
    0.0121052
    0.0120693
    0.0120338
    0.0119983
    0.0119631
    0.0119278
    0.0118929
    0.0118581
    0.0118236
    0.0117892
    0.0117551
    0.011721
    0.0116872
    0.0116536
    0.0116203
    0.0115872
    0.0115542
    0.0115214
    0.0114889
    0.0114564
    0.0114242
    0.0113921
    0.0113603
    0.0113285
    0.011297
    0.0112654
    0.0112343
    0.0122677
    0.0122308
    0.0121942
    0.0121577
    0.0121214
    0.0120854
    0.0120496
    0.012014
    0.0119785
    0.0119433
    0.0119083
    0.0118735
    0.0118389
    0.0118045
    0.0117703
    0.0117363
    0.0117026
    0.011669
    0.0116357
    0.0116025
    0.0115695
    0.0115367
    0.011504
    0.0114716
    0.0114393
    0.0114072
    0.0113752
    0.0113435
    0.0113118
    0.0112806
    0.0122072
    0.0121703
    0.0121335
    0.0120971
    0.012061
    0.0120253
    0.0119898
    0.0119546
    0.0119196
    0.0118848
    0.0118503
    0.0118159
    0.0117818
    0.0117478
    0.011714
    0.0116803
    0.0116469
    0.0116136
    0.0115806
    0.0115476
    0.011515
    0.0114824
    0.0114501
    0.0114178
    0.011386
    0.011354
    0.0113226
    0.0112908
    0.0112599
    0.0112288
    0.0121996
    0.0121633
    0.0121273
    0.0120914
    0.0120558
    0.0120203
    0.0119851
    0.01195
    0.0119151
    0.0118803
    0.0118458
    0.0118113
    0.0117772
    0.011743
    0.0117091
    0.0116753
    0.0116418
    0.0116084
    0.0115752
    0.0115422
    0.0115094
    0.0114767
    0.0114443
    0.011412
    0.01138
    0.011348
    0.0113164
    0.0112846
    0.0112534
    0.0112217
    0.0122547
    0.0122179
    0.0121816
    0.0121455
    0.0121097
    0.0120742
    0.0120388
    0.0120036
    0.0119685
    0.0119336
    0.0118988
    0.0118641
    0.0118296
    0.0117952
    0.011761
    0.0117269
    0.0116931
    0.0116594
    0.011626
    0.0115927
    0.0115597
    0.0115269
    0.0114943
    0.0114618
    0.0114296
    0.0113975
    0.0113656
    0.011334
    0.0113022
    0.0112713
    0.0121742
    0.0121379
    0.012102
    0.0120662
    0.0120307
    0.0119952
    0.0119601
    0.011925
    0.0118901
    0.0118553
    0.0118208
    0.0117864
    0.0117523
    0.0117183
    0.0116845
    0.0116509
    0.0116176
    0.0115843
    0.0115514
    0.0115187
    0.0114861
    0.0114537
    0.0114217
    0.0113896
    0.0113579
    0.0113261
    0.0112948
    0.0112634
    0.0112319
    0.0112026
    0.012165
    0.0121281
    0.0120915
    0.0120551
    0.012019
    0.0119833
    0.0119478
    0.0119126
    0.0118778
    0.0118431
    0.0118087
    0.0117745
    0.0117406
    0.0117068
    0.0116733
    0.0116398
    0.0116067
    0.0115737
    0.0115409
    0.0115082
    0.0114758
    0.0114434
    0.0114115
    0.0113794
    0.0113478
    0.0113159
    0.0112847
    0.0112531
    0.0112223
    0.0111909
    0.0121684
    0.0121323
    0.0120964
    0.0120607
    0.0120251
    0.0119898
    0.0119547
    0.0119199
    0.0118853
    0.0118508
    0.0118167
    0.0117827
    0.011749
    0.0117153
    0.0116819
    0.0116487
    0.0116156
    0.0115827
    0.01155
    0.0115174
    0.0114851
    0.0114528
    0.0114208
    0.0113888
    0.0113572
    0.0113254
    0.0112941
    0.0112627
    0.0112316
    0.0112002
    0.0122425
    0.0122057
    0.0121692
    0.0121328
    0.0120967
    0.0120607
    0.012025
    0.0119895
    0.0119542
    0.0119191
    0.0118843
    0.0118496
    0.0118152
    0.011781
    0.011747
    0.0117132
    0.0116796
    0.0116462
    0.011613
    0.01158
    0.0115473
    0.0115147
    0.0114823
    0.0114501
    0.011418
    0.0113862
    0.0113544
    0.0113229
    0.0112913
    0.0112601
    0.0121644
    0.0121279
    0.0120916
    0.0120555
    0.0120197
    0.0119841
    0.0119488
    0.0119136
    0.0118787
    0.011844
    0.0118095
    0.0117752
    0.0117411
    0.0117072
    0.0116735
    0.0116399
    0.0116067
    0.0115736
    0.0115407
    0.0115081
    0.0114756
    0.0114433
    0.0114114
    0.0113794
    0.0113479
    0.0113163
    0.011285
    0.0112538
    0.0112227
    0.0111923
    0.0121519
    0.0121165
    0.0120813
    0.0120461
    0.012011
    0.0119761
    0.0119413
    0.0119066
    0.0118721
    0.0118377
    0.0118034
    0.0117693
    0.0117354
    0.0117016
    0.0116681
    0.0116347
    0.0116016
    0.0115686
    0.0115359
    0.0115034
    0.0114711
    0.0114389
    0.0114071
    0.0113754
    0.0113439
    0.0113126
    0.0112814
    0.0112504
    0.0112195
    0.0111887
    0.012221
    0.0121844
    0.0121482
    0.0121122
    0.0120765
    0.0120411
    0.0120059
    0.0119709
    0.0119361
    0.0119014
    0.0118669
    0.0118326
    0.0117984
    0.0117644
    0.0117305
    0.0116969
    0.0116634
    0.0116301
    0.011597
    0.011564
    0.0115313
    0.0114988
    0.0114665
    0.0114344
    0.0114025
    0.0113708
    0.0113392
    0.0113079
    0.0112765
    0.0112456
    0.0121318
    0.0120957
    0.0120598
    0.012024
    0.0119887
    0.0119535
    0.0119187
    0.0118841
    0.0118497
    0.0118155
    0.0117814
    0.0117476
    0.0117139
    0.0116803
    0.011647
    0.0116137
    0.0115807
    0.0115478
    0.0115151
    0.0114825
    0.0114502
    0.0114179
    0.0113859
    0.0113541
    0.0113225
    0.011291
    0.0112597
    0.0112285
    0.0111976
    0.0111672
    0.0121126
    0.0120776
    0.012043
    0.0120083
    0.0119739
    0.0119395
    0.0119054
    0.0118713
    0.0118375
    0.0118036
    0.01177
    0.0117364
    0.0117031
    0.0116697
    0.0116366
    0.0116036
    0.0115707
    0.0115379
    0.0115054
    0.0114729
    0.0114407
    0.0114084
    0.0113765
    0.0113448
    0.0113133
    0.0112819
    0.0112506
    0.0112195
    0.0111886
    0.0111577
    0.0121843
    0.012148
    0.0121122
    0.0120766
    0.0120413
    0.0120064
    0.0119716
    0.0119371
    0.0119028
    0.0118685
    0.0118344
    0.0118005
    0.0117668
    0.0117332
    0.0116997
    0.0116664
    0.0116332
    0.0116002
    0.0115673
    0.0115346
    0.011502
    0.0114696
    0.0114374
    0.0114054
    0.0113736
    0.0113419
    0.0113102
    0.0112789
    0.0112475
    0.0112165
    0.0120793
    0.0120436
    0.0120083
    0.011973
    0.011938
    0.0119032
    0.0118687
    0.0118341
    0.0117998
    0.0117656
    0.0117317
    0.0116977
    0.0116644
    0.011631
    0.011598
    0.0115649
    0.0115323
    0.0114997
    0.0114673
    0.0114349
    0.011403
    0.0113708
    0.0113389
    0.0113074
    0.0112762
    0.0112447
    0.0112131
    0.0111817
    0.0111507
    0.0111205
    0.0120524
    0.0120177
    0.0119835
    0.0119491
    0.0119149
    0.0118807
    0.0118468
    0.0118126
    0.0117788
    0.0117448
    0.0117114
    0.0116776
    0.0116445
    0.0116114
    0.0115788
    0.0115458
    0.0115133
    0.0114807
    0.0114484
    0.0114157
    0.011384
    0.0113518
    0.0113198
    0.011288
    0.011257
    0.0112252
    0.0111932
    0.0111616
    0.0111309
    0.0111006
    0.0121136
    0.0120773
    0.0120417
    0.0120064
    0.0119714
    0.0119367
    0.0119025
    0.0118681
    0.0118339
    0.0117999
    0.0117666
    0.011733
    0.0116998
    0.0116668
    0.0116343
    0.0116013
    0.011568
    0.0115348
    0.011502
    0.0114689
    0.0114363
    0.0114038
    0.0113714
    0.0113388
    0.0113074
    0.0112761
    0.0112443
    0.0112122
    0.0111823
    0.0111536
    0.0119675
    0.011933
    0.0118995
    0.0118662
    0.0118333
    0.0117999
    0.0117677
    0.011735
    0.0117027
    0.0116696
    0.0116374
    0.0116049
    0.0115729
    0.01154
    0.0115078
    0.0114753
    0.0114428
    0.0114103
    0.011379
    0.0113473
    0.0113166
    0.0112862
    0.0112563
    0.0112239
    0.0111949
    0.01117
    0.0111476
    0.0111219
    0.0111001
    0.0110828
    0.011916
    0.0118857
    0.011855
    0.011825
    0.0117951
    0.0117637
    0.0117327
    0.0117035
    0.0116756
    0.0116453
    0.0116125
    0.0115799
    0.0115497
    0.0115187
    0.0114879
    0.0114593
    0.0114328
    0.0114062
    0.0113787
    0.0113506
    0.0113241
    0.0113007
    0.0112755
    0.0112499
    0.0112267
    0.0112091
    0.0111928
    0.0111722
    0.0111463
    0.0111249
    0.0117572
    0.011738
    0.0117139
    0.0116861
    0.0116645
    0.0116433
    0.011617
    0.0115914
    0.0115751
    0.0115578
    0.0115322
    0.0115033
    0.0114883
    0.011475
    0.0114541
    0.0114366
    0.0114304
    0.0114261
    0.0114137
    0.011398
    0.0113917
    0.0113927
    0.0113914
    0.0113765
    0.0113611
    0.0113552
    0.0113567
    0.0113647
    0.0113596
    0.0113399
    0.0114773
    0.0114655
    0.0114505
    0.0114473
    0.0114502
    0.0114599
    0.0114715
    0.011479
    0.0114872
    0.0114968
    0.0115014
    0.0115039
    0.0115103
    0.0115132
    0.0115104
    0.0115059
    0.0115063
    0.0115094
    0.0115099
    0.0115094
    0.0115116
    0.0115223
    0.011533
    0.0115356
    0.0115335
    0.0115311
    0.0115347
    0.0115493
    0.0115539
    0.0115441
    0.0109246
    0.0109599
    0.0110084
    0.0110831
    0.0111477
    0.0111784
    0.0111907
    0.0111972
    0.0112029
    0.0112083
    0.0112152
    0.011228
    0.0112467
    0.0112616
    0.0112724
    0.0112845
    0.0112959
    0.0113012
    0.0113039
    0.0113086
    0.0113171
    0.0113213
    0.0113217
    0.011321
    0.0113225
    0.0113275
    0.0113304
    0.01133
    0.0113309
    0.0113302
    0.0310504
    0.0305762
    0.0301255
    0.0297286
    0.0293861
    0.0290802
    0.028803
    0.0285483
    0.0283155
    0.0281078
    0.0279228
    0.0277572
    0.0276187
    0.0275109
    0.027435
    0.0273874
    0.0273548
    0.0273276
    0.0273113
    0.0273114
    0.0273295
    0.0273815
    0.0274654
    0.0275507
    0.0276109
    0.0276531
    0.0277029
    0.0278036
    0.0279621
    0.028125
    0.0282849
    0.0284091
    0.0284769
    0.0285072
    0.028555
    0.028636
    0.0286951
    0.0286911
    0.0286418
    0.0285912
    0.0285694
    0.0285681
    0.0285686
    0.028555
    0.0285128
    0.028439
    0.0283434
    0.0282394
    0.0281304
    0.0280116
    0.0278719
    0.0277019
    0.0274936
    0.0272341
    0.0269127
    0.0264943
    0.0259538
    0.0251743
    0.0241283
    0.0230747
    0.031104
    0.030625
    0.0301496
    0.0297415
    0.0293915
    0.0290782
    0.0287935
    0.028534
    0.0282959
    0.0280825
    0.0278946
    0.0277385
    0.0276116
    0.0275077
    0.0274263
    0.0273701
    0.0273397
    0.0273286
    0.0273277
    0.0273355
    0.0273493
    0.0273726
    0.0274151
    0.0274849
    0.0275773
    0.0276794
    0.0277826
    0.0278692
    0.0279421
    0.0280271
    0.0281259
    0.0282383
    0.028345
    0.0284148
    0.02846
    0.0285126
    0.0285809
    0.0286324
    0.0286441
    0.0286258
    0.0285996
    0.0285728
    0.0285432
    0.0285065
    0.0284567
    0.0283878
    0.0282986
    0.0281949
    0.0280802
    0.0279543
    0.0278077
    0.0276314
    0.0274165
    0.0271524
    0.0268307
    0.0264156
    0.0258791
    0.0250927
    0.0240829
    0.0231109
    0.0310692
    0.0305424
    0.0300526
    0.0296238
    0.02925
    0.0289169
    0.0286216
    0.0283579
    0.0281261
    0.0279235
    0.0277424
    0.0275787
    0.0274308
    0.0273022
    0.0271936
    0.02711
    0.027061
    0.0270504
    0.0270655
    0.027094
    0.0271244
    0.0271394
    0.0271409
    0.0271613
    0.0272352
    0.0273848
    0.0276188
    0.027837
    0.0279142
    0.0279153
    0.0279063
    0.0279308
    0.0280085
    0.0280999
    0.0281564
    0.0281791
    0.0282158
    0.0282921
    0.028377
    0.0284341
    0.028458
    0.0284501
    0.028416
    0.0283668
    0.0283108
    0.0282489
    0.0281748
    0.0280835
    0.0279753
    0.0278506
    0.0277061
    0.02753
    0.0273147
    0.0270503
    0.0267305
    0.0263267
    0.0258125
    0.0250659
    0.0240609
    0.0231238
    0.0309511
    0.0303978
    0.0298705
    0.0294034
    0.0290028
    0.0286487
    0.0283271
    0.0280353
    0.0277702
    0.0275383
    0.0273427
    0.0271854
    0.0270594
    0.0269543
    0.02686
    0.0267742
    0.0267048
    0.0266661
    0.0266641
    0.0266932
    0.0267482
    0.0268038
    0.0268375
    0.0268559
    0.0268774
    0.0269292
    0.0270735
    0.0272715
    0.0274264
    0.0275414
    0.0276094
    0.0276502
    0.0277107
    0.0277899
    0.0278371
    0.0278385
    0.0278318
    0.0278603
    0.0279236
    0.0279875
    0.0280231
    0.0280255
    0.028
    0.0279552
    0.0279021
    0.0278458
    0.0277784
    0.0276941
    0.0275886
    0.0274658
    0.0273206
    0.0271492
    0.0269399
    0.0266859
    0.0263814
    0.0259981
    0.0255071
    0.0248104
    0.0238503
    0.0230884
    0.0307106
    0.0300821
    0.0294667
    0.0289225
    0.0284722
    0.0280872
    0.0277473
    0.0274337
    0.0271466
    0.0268881
    0.02666
    0.0264593
    0.0262962
    0.0261773
    0.0260926
    0.026028
    0.025973
    0.0259272
    0.0259026
    0.0259111
    0.02596
    0.0260465
    0.0261459
    0.026239
    0.0263299
    0.0264198
    0.026532
    0.0267002
    0.0268325
    0.0269655
    0.0270973
    0.0271956
    0.0272849
    0.0273802
    0.0274465
    0.0274688
    0.0274887
    0.0275309
    0.0275846
    0.0276189
    0.0276274
    0.0276178
    0.0275968
    0.0275692
    0.0275398
    0.0275084
    0.0274657
    0.0274014
    0.0273124
    0.0271992
    0.0270641
    0.0269029
    0.0267088
    0.0264748
    0.0261912
    0.0258381
    0.0253833
    0.0247467
    0.0237847
    0.0230762
    0.0301352
    0.0294268
    0.0287342
    0.0281279
    0.0276331
    0.0272215
    0.026869
    0.0265606
    0.0262828
    0.0260305
    0.0257997
    0.0256104
    0.0254695
    0.025378
    0.025335
    0.0253293
    0.0253508
    0.0253825
    0.0254131
    0.0254524
    0.0255131
    0.025607
    0.0257368
    0.025876
    0.0260153
    0.0261429
    0.0262589
    0.026391
    0.0265282
    0.0266644
    0.0268021
    0.0269194
    0.0270061
    0.0270952
    0.0271901
    0.0272395
    0.0272563
    0.0272731
    0.0272954
    0.0273125
    0.027318
    0.0273124
    0.0273008
    0.0272779
    0.0272458
    0.027209
    0.027163
    0.0271015
    0.0270178
    0.0269122
    0.0267826
    0.0266303
    0.0264471
    0.0262304
    0.0259666
    0.0256362
    0.0251943
    0.0246147
    0.023621
    0.023055
    0.0290347
    0.0282554
    0.027593
    0.0269741
    0.0264403
    0.0260045
    0.0256626
    0.0253962
    0.0251887
    0.0250273
    0.0249056
    0.0248101
    0.0247327
    0.0246846
    0.0246746
    0.0247122
    0.0247975
    0.0249052
    0.0250068
    0.0250982
    0.0251889
    0.0252976
    0.0254522
    0.025639
    0.0258264
    0.026004
    0.0261562
    0.0262865
    0.0264253
    0.0265601
    0.0266834
    0.026808
    0.0268966
    0.0269666
    0.0270717
    0.0271581
    0.0271842
    0.0271928
    0.0272029
    0.0272127
    0.027219
    0.0272185
    0.0272165
    0.0272024
    0.0271695
    0.0271254
    0.0270734
    0.0270093
    0.0269284
    0.0268286
    0.0267074
    0.026564
    0.0263944
    0.0261911
    0.0259401
    0.025629
    0.0251991
    0.0246727
    0.0237025
    0.0232502
    0.0273548
    0.0265292
    0.0260951
    0.0256128
    0.0252036
    0.0248791
    0.0246289
    0.0244423
    0.024312
    0.0242397
    0.0242233
    0.0242467
    0.0242822
    0.0243156
    0.0243567
    0.0244295
    0.0245457
    0.0246952
    0.0248507
    0.0249885
    0.0251153
    0.0252314
    0.0253669
    0.0255526
    0.0257589
    0.0259688
    0.0261584
    0.0262944
    0.0264148
    0.0265394
    0.0266396
    0.0267469
    0.0268378
    0.0269009
    0.0270053
    0.0271264
    0.0271699
    0.0271847
    0.0272054
    0.0272263
    0.0272345
    0.0272318
    0.0272295
    0.027209
    0.0271619
    0.0271041
    0.0270434
    0.0269775
    0.0269007
    0.0268091
    0.0266959
    0.0265636
    0.0264006
    0.0262107
    0.0259609
    0.0256773
    0.0252873
    0.0248073
    0.0239383
    0.0235213
    0.0256007
    0.0247955
    0.0245437
    0.0242916
    0.0241171
    0.024
    0.0239142
    0.0238439
    0.0237944
    0.0237855
    0.0238407
    0.0239439
    0.0240571
    0.024161
    0.0242561
    0.0243461
    0.0244526
    0.0245943
    0.0247662
    0.0249299
    0.0250813
    0.0252043
    0.0253241
    0.0255004
    0.0257113
    0.0259357
    0.0261655
    0.0263187
    0.0264353
    0.0265927
    0.0266907
    0.0267739
    0.0268807
    0.0269405
    0.0270199
    0.0271555
    0.0272175
    0.0272364
    0.0272697
    0.0273093
    0.0273149
    0.027318
    0.0273083
    0.0272751
    0.0272204
    0.0271578
    0.0270917
    0.0270229
    0.0269454
    0.0268586
    0.0267501
    0.0266248
    0.0264693
    0.0262861
    0.0260547
    0.0257937
    0.0254346
    0.0250083
    0.0242496
    0.0238816
    0.024377
    0.0237032
    0.0235622
    0.0234666
    0.023461
    0.0235152
    0.0235789
    0.0236178
    0.0236347
    0.023654
    0.023709
    0.0238111
    0.0239437
    0.0240838
    0.02421
    0.0243172
    0.0244238
    0.0245549
    0.0247356
    0.0249204
    0.0250878
    0.0252422
    0.02538
    0.0255707
    0.0258132
    0.0260308
    0.0262715
    0.0264718
    0.0265998
    0.0267886
    0.0269453
    0.0270064
    0.0271341
    0.0272187
    0.027275
    0.0274016
    0.0274783
    0.027494
    0.0275254
    0.0275773
    0.0275926
    0.0275924
    0.0275757
    0.0275307
    0.0274732
    0.0274114
    0.0273414
    0.027261
    0.0271679
    0.027065
    0.0269497
    0.0268204
    0.0266634
    0.0264778
    0.0262551
    0.0259951
    0.0256726
    0.0253129
    0.0246456