/*--------------------------------*- C++ -*----------------------------------*\
| =========                 |                                                 |
| \\      /  F ield         | OpenFOAM: The Open Source CFD Toolbox           |
|  \\    /   O peration     | Version:  5.0                                   |
|   \\  /    A nd           | Web:      www.OpenFOAM.org                      |
|    \\/     M anipulation  |                                                 |
\*---------------------------------------------------------------------------*/
FoamFile
{
    version     2.0;
    format      ascii;
    class       volScalarField;
    location    "0.004";
    object      T;
}
// * * * * * * * * * * * * * * * * * * * * * * * * * * * * * * * * * * * * * //

dimensions      [0 0 0 1 0 0 0];

internalField   nonuniform List<scalar> 
48115
(
1497.06
1522.46
1538.78
1552.66
1564.96
1575.1
1582.26
1590.34
1605.41
1648.83
1725.51
1826.52
1927.5
1982.62
1981.98
1926.66
1803.09
1666.79
1565.71
1499.32
1454.72
1423.82
1403.3
1391.25
1386.28
1384.77
1386.6
1393.72
1409.87
1435.06
1489.22
1501.63
1515.38
1527.59
1537.86
1546.54
1553.68
1561.52
1574.34
1616.31
1700.95
1818.49
1932.34
1994.76
2004.98
1955.77
1840.35
1703.32
1594.88
1520.88
1470.17
1435.08
1411.09
1396.29
1389.39
1387.31
1388.76
1395.24
1410.24
1434.16
1487.92
1492.65
1500.39
1507.72
1513.68
1519.13
1524.16
1528.99
1536.57
1562.62
1631.61
1749.24
1887.96
1997.38
2029.22
2007.78
1931.02
1811.48
1692.06
1597.51
1528.08
1478.2
1442.76
1418.75
1404.59
1398.37
1397.82
1401.95
1414.38
1437.02
1486.7
1488.21
1491.93
1497.07
1501.49
1505.79
1509.59
1511.81
1515.7
1525.58
1559.89
1642.58
1781.11
1929.7
2026.27
2041.81
2012.23
1945.59
1850
1748.84
1657.33
1583.16
1524.44
1479.38
1447.61
1428.82
1422.04
1421.15
1427.89
1444.24
1484.57
1484.66
1485.81
1488.48
1492.4
1496.82
1500.93
1502.58
1504.82
1508.71
1521.01
1559.72
1654.25
1796.83
1938.44
2021.47
2032.96
2017.66
1976.47
1909.63
1827.81
1745.08
1666.79
1596.27
1537.88
1496.44
1472.81
1460.43
1458.13
1461.72
1480.48
1480.07
1479.81
1480.4
1482.22
1485.25
1489.71
1493.4
1495.68
1497.79
1502.01
1516.27
1560.52
1663.5
1795.84
1919.58
2000.46
2019.77
2014.43
1992.52
1953.95
1899.44
1832.52
1757.57
1679.96
1613.11
1563.98
1527.7
1508.68
1498.27
1474.46
1473.48
1472.82
1472.54
1472.91
1474.07
1476.46
1480.09
1483.88
1486.84
1489.75
1494.86
1506.94
1559.84
1670.7
1779.28
1892.61
1964.97
1994.86
1999.1
1995.65
1977.75
1947.83
1901.69
1839.21
1770.3
1705.67
1640.75
1593.57
1564.91
1467.92
1466.9
1465.98
1465.01
1464.86
1465.03
1465.72
1467.3
1470.01
1473.32
1476.73
1480.09
1488.07
1503.5
1560.02
1664.45
1760.32
1860.44
1926.28
1965.06
1984.62
1986.94
1983.06
1968.97
1943.45
1903.7
1854.31
1789.59
1721.1
1669.03
1462.66
1461.79
1460.79
1459.8
1458.75
1458.25
1458.23
1458.6
1459.47
1461.23
1463.73
1466.65
1470.81
1477.61
1495.21
1556.39
1647.75
1740.25
1825.32
1889.26
1930.66
1958.05
1969.82
1976.14
1976.64
1966.48
1945.15
1909.84
1856.57
1794.39
1459.39
1458.48
1457.52
1456.58
1455.46
1454.48
1453.7
1453.22
1453.21
1453.58
1454.5
1456.08
1458.43
1461.87
1468.19
1487.47
1540.38
1628.87
1725.82
1787.07
1848.95
1892.1
1924.85
1949.7
1970.88
1974.98
1969.75
1959.48
1941.33
1894.87
1457.54
1456.56
1455.59
1454.61
1453.63
1452.53
1451.47
1450.45
1449.82
1449.27
1449.3
1449.68
1450.5
1451.81
1453.54
1458.6
1474.85
1522.25
1620.56
1696.18
1754.47
1812.73
1854.74
1890.16
1926.99
1954.62
1957.03
1957.33
1961.77
1945.49
1456.58
1455.56
1454.56
1453.54
1452.54
1451.5
1450.46
1449.32
1448.37
1447.47
1446.75
1446.32
1446.05
1446.26
1447.27
1448.45
1452.48
1464.71
1506.53
1596.3
1668.58
1732.65
1783.98
1827.22
1865.14
1895.58
1914.03
1930.59
1952.82
1959.18
1456.07
1455.02
1453.99
1452.96
1451.95
1450.92
1449.92
1448.87
1447.82
1446.79
1445.82
1444.91
1444.18
1443.66
1443.73
1444.49
1445.31
1447.82
1456.24
1490.21
1560.25
1644.77
1721.33
1764.55
1792.98
1824.8
1847.27
1869.7
1900
1939.39
1457.07
1456.02
1454.99
1453.94
1452.92
1451.88
1450.87
1449.85
1448.82
1447.77
1446.76
1445.76
1444.88
1444.09
1443.42
1442.99
1442.4
1442.69
1444.11
1450.18
1471.43
1527.84
1625.23
1705.26
1737.13
1761.66
1789.91
1813.42
1840.86
1892.16
1456.54
1455.47
1454.44
1453.38
1452.36
1451.3
1450.3
1449.26
1448.26
1447.2
1446.19
1445.13
1444.18
1443.25
1442.39
1441.46
1440.8
1440.11
1440.07
1440.82
1444.54
1458.07
1501.58
1597.63
1670.48
1709.13
1744.36
1773.83
1798.5
1836.83
1456.71
1455.65
1454.62
1453.55
1452.53
1451.47
1450.45
1449.4
1448.4
1447.35
1446.34
1445.27
1444.26
1443.22
1442.29
1441.24
1440.41
1439.54
1439.21
1439
1439.4
1441.45
1449.65
1478.64
1553.7
1621.61
1693.21
1739.75
1760.19
1786.68
1458.15
1457.09
1456.05
1455
1453.97
1452.92
1451.88
1450.84
1449.81
1448.78
1447.76
1446.72
1445.69
1444.65
1443.63
1442.6
1441.6
1440.62
1439.73
1439.07
1438.05
1437.99
1438.89
1443.28
1460.37
1501.82
1576.25
1679.09
1720.3
1753.71
1457.38
1456.31
1455.25
1454.2
1453.16
1452.12
1451.08
1450.05
1449.02
1447.99
1446.97
1445.96
1444.93
1443.92
1442.88
1441.89
1440.84
1439.89
1438.84
1438.03
1437.1
1436.49
1435.84
1436.16
1438.39
1446.57
1468.89
1544.66
1642.48
1707.41
1457.79
1456.73
1455.67
1454.62
1453.57
1452.53
1451.48
1450.45
1449.41
1448.38
1447.35
1446.34
1445.31
1444.3
1443.26
1442.26
1441.23
1440.23
1439.21
1438.23
1437.34
1436.45
1435.84
1435.3
1435.41
1436.29
1439.88
1455.72
1505.86
1600.75
1459.41
1458.36
1457.3
1456.25
1455.2
1454.16
1453.11
1452.07
1451.03
1450
1448.97
1447.94
1446.91
1445.89
1444.88
1443.86
1442.85
1441.83
1440.83
1439.79
1438.81
1437.8
1436.88
1435.98
1435.21
1434.21
1434.53
1436.62
1444.47
1481.46
1458.42
1457.35
1456.28
1455.23
1454.18
1453.13
1452.09
1451.05
1450.01
1448.99
1447.95
1446.94
1445.91
1444.9
1443.88
1442.88
1441.87
1440.87
1439.87
1438.86
1437.87
1436.87
1435.89
1434.95
1434.04
1433.33
1432.5
1432.32
1432.98
1440.37
1458.92
1457.86
1456.79
1455.74
1454.68
1453.64
1452.59
1451.55
1450.51
1449.48
1448.44
1447.43
1446.4
1445.38
1444.36
1443.36
1442.34
1441.35
1440.33
1439.35
1438.33
1437.35
1436.33
1435.4
1434.36
1433.59
1432.66
1432.16
1431.89
1432.83
1460.63
1459.58
1458.53
1457.48
1456.42
1455.38
1454.33
1453.29
1452.24
1451.21
1450.17
1449.15
1448.12
1447.1
1446.07
1445.06
1444.04
1443.05
1442.03
1441.04
1440.03
1439.05
1438.03
1437.06
1436.04
1435.07
1434.09
1433.19
1432.03
1431.62
1459.43
1458.37
1457.29
1456.24
1455.18
1454.14
1453.09
1452.06
1451.01
1449.99
1448.95
1447.94
1446.9
1445.9
1444.86
1443.87
1442.84
1441.86
1440.84
1439.87
1438.85
1437.89
1436.87
1435.91
1434.91
1433.95
1432.94
1432.03
1431.05
1430.24
1459.95
1458.89
1457.82
1456.77
1455.71
1454.67
1453.62
1452.59
1451.54
1450.51
1449.47
1448.46
1447.42
1446.42
1445.39
1444.39
1443.36
1442.37
1441.36
1440.38
1439.37
1438.39
1437.39
1436.42
1435.43
1434.45
1433.46
1432.51
1431.54
1430.56
1461.73
1460.68
1459.63
1458.58
1457.53
1456.49
1455.44
1454.4
1453.36
1452.32
1451.29
1450.26
1449.23
1448.21
1447.18
1446.17
1445.15
1444.15
1443.14
1442.14
1441.14
1440.15
1439.16
1438.17
1437.19
1436.21
1435.22
1434.25
1433.28
1432.28
1460.36
1459.29
1458.22
1457.16
1456.1
1455.06
1454.02
1452.98
1451.94
1450.91
1449.88
1448.86
1447.83
1446.81
1445.79
1444.79
1443.77
1442.77
1441.77
1440.78
1439.78
1438.8
1437.81
1436.83
1435.85
1434.88
1433.9
1432.93
1431.97
1430.98
1460.89
1459.82
1458.76
1457.7
1456.65
1455.6
1454.56
1453.52
1452.48
1451.45
1450.42
1449.39
1448.37
1447.35
1446.33
1445.32
1444.31
1443.31
1442.31
1441.31
1440.32
1439.33
1438.34
1437.36
1436.38
1435.4
1434.43
1433.46
1432.49
1431.48
1462.79
1461.75
1460.7
1459.65
1458.6
1457.55
1456.51
1455.47
1454.43
1453.39
1452.35
1451.33
1450.3
1449.28
1448.26
1447.24
1446.23
1445.22
1444.22
1443.22
1442.22
1441.22
1440.23
1439.24
1438.26
1437.28
1436.3
1435.32
1434.35
1433.36
1461.27
1460.19
1459.12
1458.05
1456.99
1455.94
1454.9
1453.87
1452.83
1451.8
1450.78
1449.76
1448.74
1447.73
1446.71
1445.7
1444.7
1443.69
1442.7
1441.7
1440.71
1439.72
1438.73
1437.75
1436.77
1435.79
1434.82
1433.84
1432.9
1431.89
1461.85
1460.78
1459.71
1458.65
1457.59
1456.54
1455.5
1454.45
1453.42
1452.38
1451.35
1450.33
1449.31
1448.29
1447.27
1446.25
1445.24
1444.23
1443.23
1442.23
1441.23
1440.24
1439.25
1438.26
1437.28
1436.3
1435.33
1434.34
1433.39
1432.36
1463.85
1462.81
1461.77
1460.72
1459.68
1458.65
1457.61
1456.57
1455.54
1454.5
1453.47
1452.43
1451.41
1450.38
1449.35
1448.33
1447.31
1446.3
1445.29
1444.28
1443.28
1442.28
1441.28
1440.29
1439.31
1438.32
1437.34
1436.36
1435.39
1434.41
1461.78
1460.72
1459.66
1458.61
1457.56
1456.52
1455.48
1454.44
1453.41
1452.37
1451.34
1450.31
1449.29
1448.27
1447.25
1446.23
1445.22
1444.22
1443.22
1442.22
1441.22
1440.23
1439.25
1438.26
1437.28
1436.3
1435.33
1434.36
1433.39
1432.44
1462.18
1461.09
1460.01
1458.94
1457.87
1456.81
1455.76
1454.72
1453.68
1452.64
1451.61
1450.59
1449.57
1448.55
1447.53
1446.52
1445.51
1444.5
1443.5
1442.5
1441.51
1440.51
1439.53
1438.53
1437.56
1436.57
1435.6
1434.62
1433.66
1432.65
1463.37
1462.27
1461.18
1460.09
1459.01
1457.95
1456.89
1455.83
1454.79
1453.75
1452.72
1451.69
1450.67
1449.65
1448.63
1447.62
1446.61
1445.61
1444.6
1443.61
1442.61
1441.62
1440.63
1439.64
1438.66
1437.67
1436.69
1435.71
1434.75
1433.7
1466.28
1465.23
1464.18
1463.12
1462.06
1460.99
1459.93
1458.86
1457.8
1456.75
1455.69
1454.64
1453.6
1452.56
1451.52
1450.49
1449.46
1448.44
1447.42
1446.4
1445.39
1444.39
1443.38
1442.38
1441.39
1440.4
1439.41
1438.42
1437.44
1436.43
1464.43
1463.34
1462.25
1461.17
1460.09
1459.02
1457.95
1456.89
1455.84
1454.78
1453.73
1452.68
1451.64
1450.6
1449.57
1448.54
1447.51
1446.49
1445.47
1444.46
1443.45
1442.45
1441.45
1440.45
1439.47
1438.48
1437.49
1436.51
1435.54
1434.54
1465.81
1464.68
1463.56
1462.46
1461.36
1460.27
1459.19
1458.12
1457.05
1455.99
1454.93
1453.87
1452.82
1451.77
1450.73
1449.69
1448.66
1447.63
1446.61
1445.59
1444.58
1443.57
1442.57
1441.57
1440.57
1439.58
1438.59
1437.6
1436.63
1435.59
1469.08
1468.03
1466.97
1465.91
1464.84
1463.76
1462.69
1461.62
1460.55
1459.48
1458.41
1457.34
1456.28
1455.22
1454.16
1453.11
1452.06
1451.01
1449.97
1448.93
1447.89
1446.86
1445.84
1444.82
1443.8
1442.79
1441.78
1440.77
1439.77
1438.75
1467.08
1465.97
1464.87
1463.77
1462.67
1461.59
1460.51
1459.43
1458.36
1457.3
1456.23
1455.17
1454.12
1453.06
1452.01
1450.96
1449.91
1448.87
1447.83
1446.79
1445.76
1444.73
1443.71
1442.69
1441.67
1440.66
1439.65
1438.64
1437.65
1436.62
1469.07
1467.88
1466.71
1465.56
1464.43
1463.31
1462.2
1461.1
1460.01
1458.92
1457.84
1456.77
1455.7
1454.63
1453.56
1452.5
1451.44
1450.39
1449.34
1448.29
1447.25
1446.21
1445.17
1444.14
1443.12
1442.09
1441.07
1440.05
1439.06
1437.98
1473.2
1472.14
1471.07
1469.98
1468.89
1467.8
1466.7
1465.6
1464.5
1463.4
1462.3
1461.2
1460.1
1459.01
1457.92
1456.83
1455.75
1454.67
1453.59
1452.51
1451.44
1450.37
1449.31
1448.26
1447.2
1446.15
1445.1
1444.06
1443.02
1441.95
1471.06
1469.92
1468.79
1467.66
1466.54
1465.42
1464.3
1463.18
1462.06
1460.95
1459.84
1458.73
1457.63
1456.54
1455.45
1454.36
1453.28
1452.2
1451.12
1450.05
1448.98
1447.91
1446.85
1445.79
1444.75
1443.69
1442.63
1441.57
1440.54
1439.47
1473.98
1472.69
1471.43
1470.19
1468.98
1467.78
1466.61
1465.44
1464.29
1463.14
1462.01
1460.87
1459.75
1458.64
1457.54
1456.42
1455.33
1454.23
1453.14
1452.04
1450.97
1449.88
1448.8
1447.73
1446.68
1445.6
1444.52
1443.45
1442.42
1441.3
1479.01
1477.92
1476.82
1475.69
1474.56
1473.41
1472.27
1471.11
1469.96
1468.81
1467.66
1466.51
1465.37
1464.23
1463.1
1461.96
1460.81
1459.68
1458.55
1457.41
1456.3
1455.18
1454.07
1452.96
1451.88
1450.81
1449.72
1448.62
1447.59
1446.54
1476.4
1475.22
1474.06
1472.91
1471.77
1470.6
1469.47
1468.32
1467.19
1466.04
1464.89
1463.74
1462.6
1461.44
1460.29
1459.13
1457.99
1456.85
1455.75
1454.64
1453.56
1452.5
1451.45
1450.33
1449.32
1448.44
1447.65
1446.75
1445.98
1445.33
1483.05
1481.37
1479.72
1478.15
1476.63
1475.12
1473.67
1472.31
1471.02
1469.68
1468.32
1467.01
1465.76
1464.51
1463.26
1462.09
1460.97
1459.85
1458.71
1457.56
1456.47
1455.47
1454.43
1453.38
1452.42
1451.62
1450.87
1450
1449
1448.1
1501.17
1498.57
1495.86
1493.16
1490.76
1488.51
1486.21
1484.05
1482.27
1480.58
1478.7
1476.84
1475.44
1474.16
1472.71
1471.39
1470.35
1469.47
1468.36
1467.24
1466.37
1465.78
1465.14
1464.06
1463.02
1462.11
1461.68
1461.48
1460.9
1459.65
1537.1
1533.4
1530.02
1527.17
1524.75
1522.71
1520.68
1518.51
1516.38
1514.29
1512.07
1509.75
1507.61
1505.58
1503.45
1501.35
1499.46
1497.77
1496.07
1494.29
1492.74
1491.58
1490.37
1489.01
1487.44
1485.9
1484.81
1484.04
1483.13
1481.43
1606.12
1632.82
1653.18
1673.15
1676.42
1672.63
1665.23
1655.84
1645.85
1635.92
1626.36
1617.49
1609.26
1601.37
1593.82
1586.76
1580.13
1573.84
1567.85
1562.27
1557.15
1552.29
1547.64
1543.19
1539.13
1535.39
1531.8
1528.34
1525.19
1521.96
1459.71
1490.77
1519.6
1544.69
1567.62
1589.67
1611.43
1632.94
1654.06
1674.68
1694.69
1714.01
1732.73
1750.86
1768.37
1785.19
1801.12
1816.1
1830.33
1843.98
1857.03
1869.73
1882.27
1894.35
1905.59
1915.99
1925.67
1934.95
1943.19
1950.09
1956.28
1961.46
1965.41
1968.48
1971.56
1974.91
1977.57
1978.85
1979.25
1979.51
1980.12
1980.94
1981.67
1982.19
1982.45
1982.39
1982.11
1981.83
1981.61
1981.39
1981
1980.32
1979.32
1977.88
1975.95
1973.18
1969.32
1961.42
1950.35
1958.53
1462
1493.14
1521.58
1546.71
1569.79
1591.97
1613.84
1635.49
1656.75
1677.52
1697.72
1717.39
1736.5
1754.9
1772.55
1789.43
1805.57
1820.97
1835.61
1849.52
1862.62
1875.03
1887.08
1898.99
1910.81
1922.41
1933.29
1942.26
1949.06
1954.83
1960.16
1965.12
1969.48
1972.94
1975.82
1978.63
1981.37
1983.5
1984.78
1985.4
1985.76
1985.98
1986.09
1986.13
1986.14
1986.02
1985.71
1985.27
1984.8
1984.27
1983.56
1982.55
1981.17
1979.32
1976.96
1973.66
1969.07
1959.91
1946.99
1950.27
1466.28
1497.6
1526.4
1552.06
1575.69
1598.42
1620.91
1643.25
1665.37
1687.08
1708.2
1728.58
1748.16
1766.91
1784.79
1801.88
1818.35
1834.38
1849.83
1864.46
1878.12
1890.6
1902.1
1913.31
1925.11
1938
1951.37
1962.35
1969.38
1973.98
1977.42
1980.69
1984.3
1987.78
1990.48
1992.45
1994.48
1996.83
1998.92
2000.26
2000.91
2001
2000.71
2000.21
1999.7
1999.24
1998.72
1998.02
1997.16
1996.15
1994.95
1993.4
1991.43
1988.9
1985.77
1981.64
1976.12
1966.22
1950.16
1947.46
1474.39
1507.2
1537.98
1565.46
1590.89
1615.32
1639.29
1663.05
1686.51
1709.65
1732.39
1754.65
1776.18
1796.73
1816.11
1834.35
1851.57
1867.98
1883.7
1898.64
1912.75
1925.84
1937.66
1948.51
1959.03
1969.8
1981.24
1991.84
2000.28
2006.59
2010.98
2014.22
2017.3
2020.22
2022.19
2023.11
2023.71
2024.64
2025.73
2026.63
2026.96
2026.7
2025.9
2024.79
2023.57
2022.38
2021.12
2019.67
2017.94
2016.02
2013.84
2011.38
2008.48
2005.03
2000.98
1995.79
1988.92
1978.22
1958.33
1957.09
1490.62
1525.03
1559.71
1590.89
1619.8
1647.47
1674.43
1700.84
1726.81
1752.27
1777.01
1800.67
1823.19
1844.66
1864.96
1883.93
1901.23
1916.76
1930.91
1944.15
1956.81
1969.04
1980.42
1990.59
1999.83
2008.49
2017.12
2025.89
2033.03
2039.11
2044.3
2048.19
2051.27
2053.93
2055.7
2056.36
2056.68
2057.1
2057.48
2057.51
2057.06
2056.03
2054.75
2053.31
2051.81
2050.3
2048.65
2046.68
2044.35
2041.67
2038.71
2035.43
2031.73
2027.48
2022.62
2016.59
2008.7
1997.67
1975.7
1974.37
1523.49
1558.36
1598.12
1635.21
1669.53
1701.71
1732.17
1761.34
1789.43
1816.3
1841.42
1864.62
1885.95
1905.75
1924.3
1941.41
1956.65
1969.8
1981.13
1991.26
2000.78
2009.9
2018.51
2026.21
2033.04
2039.1
2044.69
2050.3
2055.8
2060.94
2065.52
2069.14
2071.67
2073.8
2075.75
2076.62
2076.65
2076.45
2076.12
2075.59
2074.8
2073.73
2072.52
2071.03
2069.33
2067.54
2065.56
2063.29
2060.66
2057.73
2054.44
2050.83
2046.73
2042.12
2036.79
2030.27
2021.76
2011.22
1989.89
1987.09
1590.86
1622.31
1664
1705.62
1743.62
1777.6
1808.2
1836.33
1862.69
1887.21
1909.16
1928.06
1944.2
1958.57
1971.79
1983.85
1994.37
2003.55
2011.47
2018.39
2024.76
2030.72
2036.59
2042.38
2047.84
2052.89
2057.27
2061.08
2065.01
2068.8
2072.41
2075.75
2077.99
2079.63
2081.57
2082.81
2082.93
2082.66
2082.2
2081.57
2080.81
2079.96
2079.1
2077.87
2076.26
2074.5
2072.54
2070.3
2067.75
2064.92
2061.76
2058.25
2054.22
2049.68
2044.2
2037.85
2029.57
2019.68
2001.4
1993.82
1701.42
1726.31
1763.33
1801.69
1836.34
1865.26
1889.3
1910.15
1928.98
1946
1960.49
1972.59
1982.81
1991.67
1999.59
2006.51
2012.52
2018.29
2023.81
2028.72
2033.26
2037.35
2041.61
2046.35
2051.19
2056.07
2060.49
2063.88
2066.72
2069.3
2071.54
2074.02
2075.97
2077.3
2079.27
2081.32
2081.9
2081.87
2081.83
2081.61
2081.13
2080.52
2079.83
2078.65
2076.94
2075.08
2073.15
2071.08
2068.8
2066.26
2063.31
2060
2056.06
2051.66
2046.06
2040.01
2032.13
2022.35
2006.6
1994.76
1831.48
1847.33
1871.35
1896.67
1918.92
1936.35
1950.01
1961.28
1971.18
1979.81
1987.2
1993.52
1999.32
2004.54
2009.07
2013.14
2017.07
2021.17
2025.36
2029.01
2032.2
2034.7
2037.29
2040.87
2044.88
2049.25
2053.84
2056.93
2059.11
2061.53
2062.68
2064
2065.92
2066.9
2068.28
2070.79
2072.13
2072.57
2073.13
2073.63
2073.63
2073.66
2073.29
2072.31
2070.9
2069.38
2067.81
2066.17
2064.34
2062.27
2059.72
2056.76
2053.17
2048.98
2043.84
2038.03
2030.26
2020.94
2006.86
1992.56
1932.37
1936.15
1946.26
1956.86
1965.77
1973.38
1979.45
1984.18
1987.84
1991.16
1994.72
1998.37
2001.78
2004.73
2006.87
2008.61
2010.32
2012.19
2014.68
2016.72
2018.13
2019.03
2019.56
2020.98
2023.39
2025.83
2029.11
2031.82
2033.2
2035.18
2036.77
2037.7
2039.98
2041.42
2042.26
2044.19
2046.19
2047.33
2048.46
2049.64
2050.62
2051.64
2051.86
2051.66
2051.3
2050.9
2050.34
2049.5
2048.38
2046.98
2045.27
2043.16
2040.41
2036.96
2032.7
2027.51
2020.86
2013.02
2001.27
1984.24
1976.93
1973.89
1974.21
1975.3
1977.94
1981.75
1985.04
1986.89
1986.86
1986.41
1986.35
1986.58
1987
1986.94
1986.29
1985.04
1983.62
1982.18
1982.21
1982.31
1981.88
1981.36
1980.11
1979.64
1980.38
1981.01
1982.25
1984.91
1986.42
1988.26
1991.44
1992.92
1995.06
1997.64
1998.7
2000.72
2003.31
2004.81
2006.06
2007.41
2008.77
2010.22
2011.44
2012.74
2013.99
2015.06
2015.75
2015.93
2015.88
2015.73
2015.38
2014.58
2013.14
2011.04
2008.19
2004.58
1999.94
1993.88
1984.83
1967.11
1976.15
1976.49
1972.19
1967.79
1965.88
1965.18
1964.01
1961.73
1958.16
1954.1
1950.34
1947.14
1944.31
1941.17
1937.83
1934.8
1932.66
1930.78
1929.23
1928.21
1926.79
1925.85
1924.81
1924.05
1924.75
1925.59
1926.17
1928.35
1930.3
1932.02
1936.01
1939.15
1941.09
1944.74
1946.69
1948.75
1951.89
1954.23
1956.2
1958.42
1960.66
1962.7
1964.58
1966.32
1967.99
1969.38
1970.5
1971.54
1972.58
1973.43
1974.27
1974.6
1974.44
1973.7
1972.35
1970.2
1967.09
1962.75
1956.43
1939.47
1940.42
1937.5
1931.08
1926.32
1922.05
1917.6
1912.2
1905.6
1898.86
1893.39
1889.27
1885.76
1882.67
1879.87
1877.36
1875.21
1873.75
1872.73
1872.32
1872.64
1873.11
1873.22
1873.57
1873.72
1874.97
1877.59
1878.33
1880.17
1882.96
1884.67
1888.28
1893.06
1895.25
1899.27
1902.4
1904.85
1908.04
1909.49
1910.77
1913.09
1915.53
1917.79
1920.08
1922.57
1924.64
1926.26
1927.63
1928.79
1929.8
1930.71
1931.77
1932.56
1933.45
1933.43
1933.11
1932.12
1930.51
1927.81
1923.54
1908.86
1885.09
1873.9
1862.47
1860.88
1859.72
1857.21
1852.38
1845.54
1840.09
1836.58
1834.57
1833.09
1831.91
1831.01
1829.82
1828.68
1828.61
1829.26
1830.55
1831.98
1834.05
1835.02
1835.64
1835.48
1836.05
1838.91
1840.53
1842.24
1845.8
1848.07
1851.17
1856.76
1859.62
1863.08
1867.9
1870.86
1875.45
1877.33
1878.95
1881.47
1883
1884.44
1886.37
1888.18
1890.03
1891.93
1893.58
1894.86
1895.96
1896.95
1898.04
1898.87
1899.76
1899.68
1899.48
1898.91
1897.83
1895.84
1892.65
1881.36
1830.73
1821
1813.23
1810.61
1810.43
1809.78
1807.11
1802.73
1801.58
1801.17
1800.7
1799.77
1798.49
1798.45
1798.79
1799.25
1799.45
1800.04
1801.39
1802.88
1804.98
1807.08
1808.37
1808.8
1809.42
1812.11
1814.65
1816.2
1819.74
1822.71
1825.51
1830.82
1834.24
1836.95
1841.73
1845.14
1849.31
1852.95
1854.85
1858.19
1859.98
1861.39
1863.61
1865.41
1867.04
1868.36
1869.95
1870.87
1871.12
1871.59
1872.54
1873.53
1874.58
1874.62
1874.38
1873.75
1872.89
1871.35
1868.78
1860.2
1786.2
1784.94
1783.47
1783.4
1784.66
1784.66
1782.66
1781.43
1781.57
1781.11
1780.62
1779.86
1778.69
1778.81
1779.86
1781.24
1781.54
1781.59
1782.25
1783.29
1785.07
1787.76
1789.86
1791.36
1792.4
1794.87
1798.52
1799.92
1802.61
1806.27
1808.73
1813.2
1817.46
1819.54
1823.68
1827.43
1831.09
1835.96
1838.12
1841.02
1843.4
1844.66
1846.97
1849.1
1850.77
1852.28
1853.67
1854.1
1854.45
1854.92
1855.75
1856.37
1856.64
1856.52
1856.34
1855.93
1855.21
1853.73
1851.48
1845.01
1753.11
1755.73
1763.12
1767.82
1771.12
1770.82
1769.3
1769.32
1769.38
1769.15
1769.09
1768.61
1767.65
1767.87
1768.95
1770.05
1770.14
1769.61
1769.65
1770.49
1772.05
1774.8
1777.49
1779.76
1781.18
1783.34
1787.41
1789.21
1791.14
1794.99
1797.31
1800.76
1805.64
1807.53
1810.94
1814.95
1818.35
1823.51
1826.3
1829.29
1832.58
1833.9
1835.99
1838.08
1839.4
1840.77
1841.93
1842.4
1842.82
1843.43
1844.3
1845.25
1845.44
1845.35
1844.94
1844.07
1842.99
1841.53
1839.67
1835.02
1715.14
1727.01
1746.49
1757.64
1756.58
1756.83
1757.32
1758.24
1761.34
1762.13
1762.18
1762.11
1761.86
1761.93
1762.33
1762.78
1762.72
1762.35
1761.59
1761.92
1762.84
1765.2
1768.2
1770.98
1773.04
1774.76
1778.68
1781.99
1783.25
1786.61
1789.55
1791.57
1796.35
1798.69
1801.12
1805.29
1808.59
1814
1817.72
1820.79
1824.41
1825.88
1828.08
1831.21
1832.86
1834.3
1834.91
1835.5
1835.65
1835.89
1836.63
1837.37
1837.34
1837.09
1836.7
1836.15
1835.38
1834.16
1832.48
1829.12
1614.94
1642.78
1682.93
1717.56
1724.34
1730.27
1736.29
1741.83
1750.89
1753.45
1754.41
1756.52
1756.68
1756.96
1757.91
1758.62
1758.67
1758.52
1757.62
1757.25
1757.9
1759.7
1762.27
1764.14
1766.23
1767.75
1770.01
1774.84
1776.89
1779.06
1783.4
1785.36
1788.85
1792.64
1794.55
1798.29
1801.52
1806.12
1810.36
1813.34
1817.76
1820.01
1822.65
1826.34
1828.09
1829.8
1831.5
1831.89
1831.97
1832.33
1832.61
1832.53
1832.04
1831.4
1831.07
1830.87
1830.65
1830.07
1828.96
1826.96
1484.98
1496.92
1522.03
1560.45
1598.15
1623.29
1653.58
1682.76
1711.89
1728.06
1735.46
1746.12
1747.66
1749.23
1753.85
1754.73
1755.33
1756.59
1756.58
1756.51
1757.21
1758.54
1760.32
1761.07
1761.89
1762.93
1764.19
1767.16
1770.99
1772.89
1776.45
1779.85
1782.89
1787.54
1789.9
1793.18
1796.66
1800.15
1804.73
1807.58
1811.86
1814.77
1817.22
1821.94
1824.48
1827.01
1829.23
1829.67
1829.97
1830.7
1830.67
1830.43
1829.58
1829.2
1829.21
1828.91
1828.36
1827.73
1826.81
1825.69
1440.11
1440.34
1441.64
1444.82
1451.27
1461.68
1481.28
1514.47
1554.75
1604.54
1645.54
1678.73
1705.56
1722.23
1741.6
1745.15
1748.2
1754.2
1754.6
1755.78
1758.49
1759.29
1759.86
1760.44
1760.37
1760.33
1761.05
1762.44
1765.31
1767.88
1770.33
1773.85
1776.85
1781.13
1784.49
1787.65
1791.78
1795.01
1799.37
1802.83
1806.55
1810.4
1812.59
1817.23
1820.74
1823.07
1827.12
1828.12
1829.06
1830.03
1829.91
1829.57
1828.77
1828.79
1828.55
1828.01
1827.25
1826.59
1825.59
1824.7
1432.28
1431.63
1430.82
1430.21
1429.58
1428.85
1428.97
1430.1
1433.53
1443.35
1464.76
1495.83
1543.64
1592.24
1633.66
1673.88
1701.41
1729.52
1739.26
1746.36
1755.62
1755.76
1756.78
1760
1759.84
1759.91
1760.95
1761.96
1763.05
1764.73
1766.35
1768.59
1771.18
1774.34
1777.97
1781.18
1785.33
1789.19
1793.51
1798.3
1801.63
1805.79
1808.61
1812.12
1817.17
1819.43
1823.11
1825.86
1827.18
1829.51
1830.19
1829.98
1829.58
1829.78
1829.57
1829.08
1828.4
1827.76
1826.84
1825.8
1430.57
1429.58
1428.74
1427.96
1427.22
1426.43
1425.77
1425.12
1424.61
1424
1424.09
1424.93
1427.68
1435.51
1452.15
1488.81
1535.84
1584.07
1638.9
1677.36
1712.14
1727.63
1738.49
1752.04
1753.15
1755.46
1760.76
1761.47
1761.82
1763.05
1764.02
1764.65
1765.9
1767.56
1770.1
1773.47
1777.64
1782.25
1786.63
1792.02
1795.98
1799.84
1804.1
1806.8
1811.59
1815.33
1818.28
1822.59
1824.6
1827.47
1830.49
1830.14
1830.23
1831.02
1830.78
1830.21
1829.12
1827.8
1826.08
1824.61
1429.48
1428.73
1428.03
1427.26
1426.53
1425.72
1424.98
1424.18
1423.46
1422.66
1421.92
1421.12
1420.49
1419.66
1419.75
1420.73
1423.93
1431.85
1454.49
1492.04
1537.94
1597.82
1643.74
1683.86
1710.09
1728.18
1747.79
1750.44
1754.04
1760.37
1760.84
1761.46
1763.46
1764.47
1765.3
1767.02
1769.49
1773.35
1778.24
1783.62
1788.74
1792.5
1797.44
1800.98
1804.86
1810.5
1813.44
1817.61
1821.48
1824.45
1828.76
1829.69
1829.69
1830.92
1830.89
1830.95
1830.62
1829.78
1828.33
1827.08
1429.84
1429.05
1428.28
1427.44
1426.63
1425.77
1424.98
1424.13
1423.38
1422.54
1421.78
1420.93
1420.26
1419.39
1418.99
1418.41
1417.88
1417.08
1417.33
1418.63
1422.38
1433.94
1458.9
1498.07
1560
1614
1660.57
1694.89
1718.94
1743.62
1747.23
1752.09
1759.46
1760.44
1761.37
1763.96
1765.84
1767.9
1771.13
1774.62
1778.83
1783.03
1787.89
1793.1
1797.15
1803.38
1807.73
1811.18
1816.37
1819.72
1823.92
1826.83
1827.28
1828.76
1830.02
1830.6
1831.65
1831.88
1831.35
1830.5
1431.32
1430.4
1429.49
1428.62
1427.74
1426.89
1426.02
1425.2
1424.35
1423.53
1422.68
1421.88
1421.04
1420.26
1419.25
1418.21
1417.25
1416.44
1415.68
1415.15
1414.41
1414.39
1414.99
1417.16
1424.04
1440.99
1472.72
1530.99
1586.35
1636.67
1678.14
1708.26
1736.99
1742.31
1749.18
1758.3
1760.1
1761.81
1765.31
1767.65
1769.73
1773.3
1777.2
1782.39
1787.91
1794.45
1800.29
1803.79
1809.17
1813.56
1817.51
1822.04
1823.86
1825.91
1828.06
1829.5
1831.45
1833.23
1832.96
1832.41
1430.08
1429.28
1428.46
1427.67
1426.84
1426.04
1425.21
1424.42
1423.59
1422.8
1421.96
1421.17
1420.33
1419.56
1418.71
1417.95
1417.06
1416.29
1415.44
1414.73
1413.96
1413.3
1412.64
1412.07
1411.47
1411.71
1413.13
1417.86
1429.52
1453.9
1506.45
1562.17
1617.58
1666.9
1702.68
1734
1739.22
1746.4
1756.4
1758.22
1760.51
1765.13
1768.52
1772.02
1777.28
1783.33
1789.11
1793.49
1799.4
1805.24
1809.31
1815.1
1819.16
1822.05
1824.78
1826.43
1828.5
1831.32
1832.08
1831.98
1430.66
1429.84
1428.99
1428.15
1427.3
1426.46
1425.6
1424.77
1423.93
1423.1
1422.25
1421.42
1420.58
1419.76
1418.93
1418.11
1417.28
1416.47
1415.66
1414.87
1414.09
1413.32
1412.57
1411.87
1411.2
1410.6
1410.35
1409.85
1409.93
1410.75
1414.1
1422.97
1443.46
1492.91
1548.97
1606.47
1659.46
1698.63
1731.86
1737.79
1745.97
1756.71
1758.86
1761.74
1767.58
1773.16
1777.78
1783.17
1789.58
1796.27
1801.14
1807.37
1813.04
1816.47
1819.64
1821.42
1823.56
1826.79
1828.54
1828.79
1432.41
1431.47
1430.57
1429.67
1428.8
1427.92
1427.06
1426.2
1425.35
1424.49
1423.64
1422.78
1421.94
1421.09
1420.25
1419.41
1418.58
1417.74
1416.92
1416.1
1415.27
1414.46
1413.64
1412.84
1412.02
1411.29
1410.28
1409.32
1408.42
1407.91
1407.26
1407.42
1408.27
1411.48
1419.53
1438.18
1485.42
1540.85
1599.9
1656.3
1699.32
1732.9
1739.19
1747.92
1759.46
1762.72
1765.99
1771.79
1777.97
1783.43
1788.98
1796.02
1802.6
1807.29
1812.21
1815.55
1818.74
1822.12
1825.47
1826.05
1431.02
1430.21
1429.42
1428.6
1427.8
1426.97
1426.15
1425.3
1424.47
1423.62
1422.79
1421.94
1421.11
1420.27
1419.44
1418.6
1417.77
1416.93
1416.11
1415.28
1414.46
1413.64
1412.82
1412.01
1411.2
1410.41
1409.62
1408.88
1408.09
1407.36
1406.66
1405.96
1405.45
1404.72
1404.79
1405.58
1408.79
1416.74
1435.46
1484.34
1542.31
1603.83
1660.46
1705.34
1737.65
1743.1
1751.06
1761.33
1764.35
1766.7
1772.5
1782.11
1790.3
1796.81
1804.39
1809.77
1814.8
1819.26
1823.72
1823.94
1431.55
1430.72
1429.88
1429.01
1428.17
1427.3
1426.45
1425.59
1424.75
1423.9
1423.08
1422.24
1421.42
1420.59
1419.78
1418.96
1418.16
1417.34
1416.55
1415.73
1414.94
1414.13
1413.35
1412.54
1411.77
1410.96
1410.21
1409.38
1408.64
1407.81
1407.12
1406.31
1405.67
1404.94
1404.34
1403.96
1403.59
1403.64
1404.4
1407.79
1416.44
1437.65
1490.86
1551.46
1613.66
1667.67
1713.66
1743.77
1750.26
1757.67
1766.18
1772.93
1778.56
1784.83
1792.69
1799.86
1806
1814.03
1819.23
1821.77
1433.46
1432.51
1431.56
1430.62
1429.7
1428.79
1427.9
1427.02
1426.15
1425.29
1424.44
1423.6
1422.76
1421.93
1421.1
1420.27
1419.45
1418.63
1417.81
1417
1416.19
1415.38
1414.57
1413.77
1412.96
1412.16
1411.35
1410.56
1409.74
1408.95
1408.13
1407.36
1406.54
1405.81
1405.03
1404.22
1403.16
1402.48
1401.7
1401.66
1401.97
1403.35
1407.96
1418.49
1443.86
1502.88
1567.96
1630.04
1678.91
1730.35
1756.36
1759.82
1764.25
1769.27
1775.61
1781.36
1788.2
1799.93
1808.04
1812.67
1431.5
1430.64
1429.78
1428.93
1428.09
1427.24
1426.4
1425.56
1424.72
1423.88
1423.05
1422.22
1421.39
1420.57
1419.75
1418.93
1418.12
1417.3
1416.49
1415.69
1414.88
1414.09
1413.28
1412.5
1411.69
1410.91
1410.11
1409.34
1408.54
1407.79
1406.99
1406.26
1405.47
1404.76
1403.99
1403.32
1402.59
1401.97
1401.35
1400.75
1400.28
1399.66
1399.66
1400.14
1401.99
1408.13
1421.84
1456.04
1523.25
1598.36
1660.42
1699.36
1741.79
1770.87
1774.77
1777.53
1782.88
1790.91
1799.08
1803.9
1431.74
1430.89
1430.02
1429.17
1428.32
1427.47
1426.63
1425.78
1424.94
1424.11
1423.27
1422.45
1421.61
1420.79
1419.96
1419.14
1418.31
1417.49
1416.67
1415.86
1415.04
1414.24
1413.42
1412.63
1411.82
1411.04
1410.24
1409.47
1408.68
1407.92
1407.15
1406.4
1405.66
1404.92
1404.21
1403.49
1402.81
1402.1
1401.48
1400.81
1400.26
1399.69
1399.23
1398.95
1398.64
1398.81
1399.74
1402.77
1411.96
1432.86
1482.24
1555.94
1628.77
1694.21
1725.89
1756.89
1781.53
1788.78
1792.16
1796.16
1432.89
1432.09
1431.25
1430.42
1429.57
1428.73
1427.88
1427.03
1426.19
1425.34
1424.49
1423.65
1422.81
1421.97
1421.12
1420.29
1419.45
1418.6
1417.77
1416.93
1416.11
1415.28
1414.46
1413.65
1412.84
1412.04
1411.24
1410.45
1409.68
1408.9
1408.15
1407.38
1406.67
1405.92
1405.24
1404.51
1403.85
1403.15
1402.51
1401.85
1401.21
1400.63
1400.01
1399.5
1398.99
1398.87
1398.77
1398.85
1399.37
1401.06
1406.12
1420.24
1452.39
1517
1604.56
1678.96
1721.6
1753.55
1773.96
1790.68
1435.49
1434.57
1433.66
1432.76
1431.87
1430.99
1430.11
1429.25
1428.38
1427.52
1426.67
1425.82
1424.97
1424.11
1423.26
1422.41
1421.56
1420.71
1419.86
1419.01
1418.18
1417.34
1416.51
1415.69
1414.87
1414.07
1413.27
1412.48
1411.7
1410.92
1410.17
1409.41
1408.69
1407.96
1407.25
1406.55
1405.87
1405.21
1404.55
1403.91
1403.28
1402.67
1402.06
1401.48
1400.89
1400.36
1399.84
1399.37
1398.86
1398.84
1399.16
1400.36
1403.83
1412.92
1439.47
1494.94
1574.2
1657.43
1724.6
1752.18
1433.63
1432.77
1431.93
1431.08
1430.25
1429.4
1428.57
1427.73
1426.89
1426.06
1425.23
1424.4
1423.57
1422.74
1421.91
1421.07
1420.25
1419.41
1418.59
1417.76
1416.95
1416.14
1415.34
1414.55
1413.76
1412.99
1412.22
1411.48
1410.74
1410
1409.28
1408.57
1407.89
1407.21
1406.54