/*--------------------------------*- C++ -*----------------------------------*\
Input file needed for the mesh motion solver. Please do not remove.
It is not advised to modify this file unless you need to modify the boundaryField names.
\*---------------------------------------------------------------------------*/

FoamFile {
  version         2.0;
  format          ascii;
  class           pointVectorField;
  object          pointMotionU;
  IOobject        NO_WRITE;
}

// * * * * * * * * * * * * * * * * * * * * * * * * * * * * * * * * * * * * * //


dimensions      [0 1 -1 0 0 0 0];

internalField   uniform (0 0 0);

boundaryField {

  top
  {
    type            symmetryPlane;
  }
  bottom
  {
    type            symmetryPlane;
  }
  inlet
  {
    type            slip;
  }
  outlet
  {
    type            slip;
  }
  hotFlow_to_porousMat
  {
    type            calculated;
  }

}


// ************************************************************************* //
