/*--------------------------------*- C++ -*----------------------------------*\
| =========                 |                                                 |
| \\      /  F ield         | OpenFOAM: The Open Source CFD Toolbox           |
|  \\    /   O peration     | Version:  2.3.1                                 |
|   \\  /    A nd           | Web:      www.OpenFOAM.org                      |
|    \\/     M anipulation  |                                                 |
\*---------------------------------------------------------------------------*/
FoamFile {
  version     2.0;
  format      ascii;
  class       volScalarField;
  location    "0/cube";
  object      k;
}
// * * * * * * * * * * * * * * * * * * * * * * * * * * * * * * * * * * * * * //

dimensions      [0 2 -2 0 0 0 0];

internalField   uniform 0.1;

boundaryField {
  wedge_neg
  {
    type            wedge;
  }

  wedge_pos
  {
    type            wedge;
  }

  /*top
  {
      type            fixedValue;
      value           uniform 0.1;
  }*/

  bottom
  {
    type            fixedValue;
    value           uniform 0;
  }

  hotFlow_to_demiseMat
  {
    type            compressible::kqRWallFunction;
    value           uniform 0.1;
  }

  hotFlow_to_ceramicMat
  {
    type            compressible::kqRWallFunction;
    value           uniform 0.1;
  }

  lateral
  {
    type            zeroGradient;
  }



}


// ************************************************************************* //
