/*--------------------------------*- C++ -*----------------------------------*\
| =========                 |                                                 |
| \\      /  F ield         | OpenFOAM: The Open Source CFD Toolbox           |
|  \\    /   O peration     | Version:  4.x                                   |
|   \\  /    A nd           | Web:      www.OpenFOAM.org                      |
|    \\/     M anipulation  |                                                 |
\*---------------------------------------------------------------------------*/
FoamFile {
  version         2.0;
  format          ascii;
  class           volScalarField;
  object          Ydefault;
}

// * * * * * * * * * * * * * * * * * * * * * * * * * * * * * * * * * * * * * //


dimensions          [ 0 0 0 0 0 0 0 ];

internalField   uniform 1.0;

boundaryField {
  top
  {
    type            zeroGradient;
  }
  sides
  {
    type            zeroGradient;
  }

  porousMat1_to_porousMat2
  {
    type            coupledMixed;
    value           uniform 1;
    Tnbr            Ydefault;
    kappaMethod     lookup;
    kappa           diffY;
  }
}


// ************************************************************************* //
