/*--------------------------------*- C++ -*----------------------------------*\
  =========                 |
  \\      /  F ield         | OpenFOAM: The Open Source CFD Toolbox
   \\    /   O peration     | Website:  https://openfoam.org
    \\  /    A nd           | Version:  7
     \\/     M anipulation  |
\*---------------------------------------------------------------------------*/
FoamFile {
  version     2.0;
  format      ascii;
  class       volScalarField;
  location    "0/cylinder";
  object      Ta;
}
// * * * * * * * * * * * * * * * * * * * * * * * * * * * * * * * * * * * * * //

dimensions      [0 0 0 1 0 0 0];

internalField           uniform 373;

boundaryField {
  top
  {
    type            zeroGradient;
  }
  bottom
  {
    type            zeroGradient;
  }
  porousMat_to_tank
  {
    type        compressible::turbulentTemperatureCoupledBaffleMixed;
    Tnbr        Ta;
    kappaMethod lookup;
    kappa       k_abl_sym;
    value       $internalField;
  }

#includeEtc "caseDicts/setConstraintTypes"

}


// ************************************************************************* //
