/*--------------------------------*- C++ -*----------------------------------*\
Input file needed for the mesh motion solver. Please do not remove.
It is not advised to modify this file unless you need to modify the boundaryField names.
\*---------------------------------------------------------------------------*/

FoamFile {
  version         2.0;
  format          ascii;
  class           pointVectorField;
  object          pointMotionU;
  IOobject        NO_WRITE;
}

// * * * * * * * * * * * * * * * * * * * * * * * * * * * * * * * * * * * * * //


dimensions      [0 1 -1 0 0 0 0];

internalField   uniform (0 0 0);

boundaryField {
  top      // name of the moving Patch
  {
    type            calculated;
  }

  sides
  {
    type            slip;
  }


  porousMat_to_subMat1
  {
    type            fixedValue;
    value           uniform (0 0 0);
  }

}


// ************************************************************************* //
