/*--------------------------------*- C++ -*----------------------------------*\
| =========                 |                                                 |
| \\      /  F ield         | OpenFOAM: The Open Source CFD Toolbox           |
|  \\    /   O peration     | Version:  2.2.1                                 |
|   \\  /    A nd           | Web:      www.OpenFOAM.org                      |
|    \\/     M anipulation  |                                                 |
\*---------------------------------------------------------------------------*/
FoamFile {
  version     2.0;
  format      ascii;
  class       volVectorField;
  location    "0";
  object      cellMotionU;
}
// * * * * * * * * * * * * * * * * * * * * * * * * * * * * * * * * * * * * * //

dimensions      [0 1 -1 0 0 0 0];

internalField   uniform (0 0 0);

boundaryField {
  defaultFaces
  {
    type            empty;
  }
  up
  {
    type            symmetryPlane;
  }
  down
  {
    type            symmetryPlane;
  }
  left
  {
    type            fixedValue;
    value           uniform (0 0 0);
  }
  right
  {
    type            fixedValue;
    value           uniform (0 0 0);
  }
  flow_to_porousMat
  {
    type            fixedValue;
    value           uniform (0 0 0);
  }
}



// ************************************************************************* //
