/*--------------------------------*- C++ -*----------------------------------*\
  =========                 |
  \\      /  F ield         | OpenFOAM: The Open Source CFD Toolbox
   \\    /   O peration     | Website:  https://openfoam.org
    \\  /    A nd           | Version:  7
     \\/     M anipulation  |
\*---------------------------------------------------------------------------*/
FoamFile
{
    version     2.0;
    format      ascii;
    class       volScalarField;
    location    "0/downwindTube";
    object      cellToRegion;
}
// * * * * * * * * * * * * * * * * * * * * * * * * * * * * * * * * * * * * * //

dimensions      [0 0 0 0 0 0 0];

internalField   uniform 2;

boundaryField
{
    downwindTube_top
    {
        type            zeroGradient;
    }
    downwindTube_outlet
    {
        type            zeroGradient;
    }
    downwindTube_pos
    {
        type            wedge;
    }
    downwindTube_neg
    {
        type            wedge;
    }
    downwindTube_to_porousMat
    {
        type            calculated;
        value           uniform 0;
    }
}


// ************************************************************************* //
