/*--------------------------------*- C++ -*----------------------------------*\
| =========                 |                                                 |
| \\      /  F ield         | OpenFOAM: The Open Source CFD Toolbox           |
|  \\    /   O peration     | Version:  4.1                                   |
|   \\  /    A nd           | Web:      www.OpenFOAM.org                      |
|    \\/     M anipulation  |                                                 |
\*---------------------------------------------------------------------------*/
FoamFile
{
    version     2.0;
    format      ascii;
    class       volScalarField;
    object      p;
}
// * * * * * * * * * * * * * * * * * * * * * * * * * * * * * * * * * * * * * //

dimensions      [1 -1 -2 0 0 0 0];

internalField   uniform 101325;

boundaryField {
   
    downwindTube_outlet
    {
    type            calculated;
    value           $internalField;
    }


    downwindTube_top
   {
    type            calculated;
    value           $internalField;
    }

    downwindTube_to_porousMat
    {
    type            calculated;
    value           $internalField;
    }

    downwindTube_neg
    {
    type            wedge;
    }

    downwindTube_pos 
    {
    type            wedge;
    }

    emptycenter2
    {
    type           empty;
    }

}




// ************************************************************************* //
