/*--------------------------------*- C++ -*----------------------------------*\
| =========                 |                                                 |
| \\      /  F ield         | OpenFOAM: The Open Source CFD Toolbox           |
|  \\    /   O peration     | Version:  4.1                                   |
|   \\  /    A nd           | Web:      www.OpenFOAM.org                      |
|    \\/     M anipulation  |                                                 |
\*---------------------------------------------------------------------------*/
FoamFile {
  version     2.0;
  format      ascii;
  class       volScalarField;
  object      Tg;
}
// * * * * * * * * * * * * * * * * * * * * * * * * * * * * * * * * * * * * * //

dimensions      [0 0 0 1 0 0 0];

internalField   uniform 293;

boundaryField {

  downwindTube_top
  {
    type            zeroGradient ;
  }

  downwindTube_outlet
  {
    type            zeroGradient ;
  }

  downwindTube_to_porousMat
  {
    type            fixedValueToNbrValue;
    nbr             Tg;
    value           uniform 293;
  }

  downwindTube_neg
  {
    type            wedge;
  }

  downwindTube_pos
  {
    type            wedge;
  }

  emptycenter2
  {
    type           empty;

  }

// ************************************************************************* //
