/*--------------------------------*- C++ -*----------------------------------*\
| =========                 |                                                 |
| \\      /  F ield         | OpenFOAM: The Open Source CFD Toolbox           |
|  \\    /   O peration     | Version:  2.2.1                                 |
|   \\  /    A nd           | Web:      www.OpenFOAM.org                      |
|    \\/     M anipulation  |                                                 |
\*---------------------------------------------------------------------------*/
FoamFile {
  version     2.0;
  format      ascii;
  class       volVectorField;
  location    "0";
  object      cellMotionU;
}
// * * * * * * * * * * * * * * * * * * * * * * * * * * * * * * * * * * * * * //

dimensions      [0 1 -1 0 0 0 0];

internalField   uniform (0 0 0);

boundaryField {

  wedge_neg
  {
    type            wedge;
  }

  wedge_pos
  {
    type            wedge;
  }

  top
  {
    type            fixedValue;
    value           uniform (0 0 0);
  }

  bottom
  {
    type            fixedValue;
    value           uniform (0 0 0);
  }

  hotFlow_to_demiseMat
  {
    type            fixedValue;
    value           uniform (0 0 0);
  }

  hotFlow_to_ceramicMat
  {
    type            fixedValue;
    value           uniform (0 0 0);
  }

  lateral
  {
    type            fixedValue;
    value           uniform (0 0 0);
  }


}



// ************************************************************************* //
