FoamFile
{
    version         2.0;
    format          ascii;
    class           volScalarField;
    object          Y[N2];
}

// * * * * * * * * * * * * * * * * * * * * * * * * * * * * * * * * * * * * * //


dimensions          [ 0 0 0 0 0 0 0 ];

internalField   uniform 0.77;

boundaryField
{
    top
    {
        type            fixedValue;
        value           uniform 0.77;
    }

    sides       
    {
        type            zeroGradient;
    }

    bottom          
    {
        type            zeroGradient;
    }

}


// ************************************************************************* //
