/*--------------------------------*- C++ -*----------------------------------*\
| =========                 |                                                 |
| \\      /  F ield         | OpenFOAM: The Open Source CFD Toolbox           |
|  \\    /   O peration     | Version:  4.1                                   |
|   \\  /    A nd           | Web:      www.OpenFOAM.org                      |
|    \\/     M anipulation  |                                                 |
\*---------------------------------------------------------------------------*/
FoamFile {
  version     2.0;
  format      ascii;
  class       volScalarField;
  location    "0/porousMat";
  object      rhoeUeCH;
}
// * * * * * * * * * * * * * * * * * * * * * * * * * * * * * * * * * * * * * //

dimensions      [1 -3 -1 0 0 0 0];

internalField   uniform 0;

boundaryField {
  top
  {
    type            boundaryMapping;
    mappingType "constant";
    mappingFileName "constant/porousMat/BoundaryConditions";
    mappingFields ((rhoeUeCH  "1"));
    value           uniform 0;
  }
  sides
  {
    type            calculated;
    value uniform 0;
  }
  bottom
  {
    type            calculated;
    value           uniform 0;
  }
}


// ************************************************************************* //
