/*--------------------------------*- C++ -*----------------------------------*\
| =========                 |                                                 |
| \\      /  F ield         | OpenFOAM: The Open Source CFD Toolbox           |
|  \\    /   O peration     | Version:  2.2.1                                 |
|   \\  /    A nd           | Web:      www.OpenFOAM.org                      |
|    \\/     M anipulation  |                                                 |
\*---------------------------------------------------------------------------*/
FoamFile {
  version     2.0;
  format      ascii;
  class       volScalarField;
  location    "0";
  object      Ta;
}
// * * * * * * * * * * * * * * * * * * * * * * * * * * * * * * * * * * * * * //

dimensions      [0 0 0 1 0 0 0];

internalField   uniform 300;

boundaryField {
  sides
  {
    type            zeroGradient;
  }
  subMat2_to_subMat1
  {
    type            compressible::turbulentTemperatureCoupledBaffleMixed;
    value           uniform 300;
    Tnbr Ta;
    kappaMethod     lookup;
    kappa	        k_abl_sym;
  }
  bottom
  {
    type            zeroGradient;
  }
}


// ************************************************************************* //
