/*--------------------------------*- C++ -*----------------------------------*\
  =========                 |
  \\      /  F ield         | OpenFOAM: The Open Source CFD Toolbox
   \\    /   O peration     | Website:  https://openfoam.org
    \\  /    A nd           | Version:  7
     \\/     M anipulation  |
\*---------------------------------------------------------------------------*/
FoamFile {
  version     2.0;
  format      ascii;
  class       volScalarField;
  location    "3600/porousMat";
  object      p;
}
// * * * * * * * * * * * * * * * * * * * * * * * * * * * * * * * * * * * * * //

dimensions      [1 -1 -2 0 0 0 0];

internalField   nonuniform List<scalar>
1290
(
    101324.011822
    101324.011822
    101324.011823
    101324.011823
    101324.011823
    101324.011823
    101324.011824
    101324.011824
    101324.011825
    101324.011826
    101324.011827
    101324.011828
    101324.011829
    101324.011831
    101324.011832
    101324.011834
    101324.011836
    101324.011838
    101324.01184
    101324.011842
    101324.011843
    101324.011845
    101324.011847
    101324.011849
    101324.011851
    101324.011853
    101324.011855
    101324.011857
    101324.011858
    101324.01186
    101324.011862
    101324.011863
    101324.011865
    101324.011867
    101324.011868
    101324.01187
    101324.011872
    101324.011873
    101324.011875
    101324.011878
    101324.01188
    101324.011882
    101324.011883
    101324.035567
    101324.035567
    101324.035567
    101324.035567
    101324.035568
    101324.035569
    101324.03557
    101324.035572
    101324.035574
    101324.035577
    101324.03558
    101324.035583
    101324.035587
    101324.035591
    101324.035596
    101324.035601
    101324.035607
    101324.035612
    101324.035618
    101324.035623
    101324.035629
    101324.035635
    101324.03564
    101324.035646
    101324.035652
    101324.035657
    101324.035662
    101324.035668
    101324.035673
    101324.035678
    101324.035682
    101324.035687
    101324.035692
    101324.035696
    101324.035701
    101324.035705
    101324.03571
    101324.035714
    101324.035719
    101324.035723
    101324.035728
    101324.035732
    101324.035734
    101324.059519
    101324.059519
    101324.059519
    101324.05952
    101324.059521
    101324.059522
    101324.059524
    101324.059527
    101324.059531
    101324.059535
    101324.05954
    101324.059546
    101324.059552
    101324.059559
    101324.059567
    101324.059575
    101324.059584
    101324.059593
    101324.059602
    101324.059611
    101324.059621
    101324.05963
    101324.059639
    101324.059648
    101324.059657
    101324.059666
    101324.059675
    101324.059683
    101324.059691
    101324.059699
    101324.059706
    101324.059714
    101324.059721
    101324.059727
    101324.059734
    101324.05974
    101324.059747
    101324.059753
    101324.059758
    101324.059764
    101324.059769
    101324.059773
    101324.059775
    101324.083727
    101324.083727
    101324.083728
    101324.083728
    101324.08373
    101324.083732
    101324.083734
    101324.083738
    101324.083743
    101324.083748
    101324.083755
    101324.083763
    101324.083772
    101324.083781
    101324.083792
    101324.083803
    101324.083815
    101324.083827
    101324.08384
    101324.083852
    101324.083865
    101324.083878
    101324.08389
    101324.083903
    101324.083915
    101324.083927
    101324.083938
    101324.083949
    101324.08396
    101324.08397
    101324.08398
    101324.083989
    101324.083998
    101324.084007
    101324.084015
    101324.084023
    101324.08403
    101324.084037
    101324.084043
    101324.084049
    101324.084054
    101324.084059
    101324.084061
    101324.108257
    101324.108257
    101324.108258
    101324.108259
    101324.10826
    101324.108263
    101324.108266
    101324.10827
    101324.108276
    101324.108283
    101324.108291
    101324.108301
    101324.108312
    101324.108324
    101324.108337
    101324.10835
    101324.108365
    101324.10838
    101324.108396
    101324.108411
    101324.108427
    101324.108443
    101324.108459
    101324.108474
    101324.108489
    101324.108503
    101324.108517
    101324.108531
    101324.108543
    101324.108556
    101324.108567
    101324.108578
    101324.108589
    101324.108599
    101324.108608
    101324.108617
    101324.108625
    101324.108632
    101324.108639
    101324.108645
    101324.10865
    101324.108655
    101324.108657
    101324.133165
    101324.133165
    101324.133166
    101324.133166
    101324.133168
    101324.133171
    101324.133174
    101324.133179
    101324.133185
    101324.133193
    101324.133203
    101324.133214
    101324.133226
    101324.13324
    101324.133256
    101324.133272
    101324.133289
    101324.133307
    101324.133325
    101324.133343
    101324.133362
    101324.13338
    101324.133398
    101324.133416
    101324.133434
    101324.13345
    101324.133466
    101324.133482
    101324.133497
    101324.133511
    101324.133524
    101324.133536
    101324.133548
    101324.133558
    101324.133569
    101324.133578
    101324.133586
    101324.133594
    101324.133601
    101324.133607
    101324.133613
    101324.133617
    101324.13362
    101324.158507
    101324.158507
    101324.158507
    101324.158508
    101324.158509
    101324.158512
    101324.158515
    101324.158521
    101324.158527
    101324.158536
    101324.158546
    101324.158558
    101324.158572
    101324.158588
    101324.158605
    101324.158623
    101324.158642
    101324.158662
    101324.158682
    101324.158703
    101324.158724
    101324.158745
    101324.158765
    101324.158785
    101324.158805
    101324.158823
    101324.158841
    101324.158858
    101324.158874
    101324.15889
    101324.158904
    101324.158918
    101324.15893
    101324.158941
    101324.158952
    101324.158962
    101324.158971
    101324.158979
    101324.158986
    101324.158992
    101324.158997
    101324.159001
    101324.159004
    101324.184335
    101324.184335
    101324.184335
    101324.184336
    101324.184337
    101324.184339
    101324.184343
    101324.184348
    101324.184355
    101324.184364
    101324.184374
    101324.184387
    101324.184402
    101324.184418
    101324.184437
    101324.184456
    101324.184477
    101324.184499
    101324.184521
    101324.184544
    101324.184566
    101324.184589
    101324.184611
    101324.184633
    101324.184654
    101324.184674
    101324.184694
    101324.184712
    101324.18473
    101324.184746
    101324.184761
    101324.184775
    101324.184788
    101324.1848
    101324.184811
    101324.184821
    101324.18483
    101324.184838
    101324.184846
    101324.184852
    101324.184857
    101324.184861
    101324.184863
    101324.210703
    101324.210703
    101324.210703
    101324.210703
    101324.210704
    101324.210705
    101324.210708
    101324.210713
    101324.21072
    101324.210728
    101324.210739
    101324.210752
    101324.210767
    101324.210784
    101324.210803
    101324.210823
    101324.210845
    101324.210868
    101324.210892
    101324.210916
    101324.21094
    101324.210964
    101324.210988
    101324.211011
    101324.211034
    101324.211055
    101324.211076
    101324.211095
    101324.211113
    101324.211131
    101324.211146
    101324.211161
    101324.211175
    101324.211187
    101324.211198
    101324.211208
    101324.211217
    101324.211225
    101324.211232
    101324.211239
    101324.211244
    101324.211247
    101324.21125
    101324.237661
    101324.23766
    101324.23766
    101324.237659
    101324.237659
    101324.23766
    101324.237662
    101324.237666
    101324.237672
    101324.23768
    101324.23769
    101324.237703
    101324.237718
    101324.237735
    101324.237754
    101324.237775
    101324.237797
    101324.237821
    101324.237845
    101324.23787
    101324.237895
    101324.23792
    101324.237945
    101324.237969
    101324.237993
    101324.238015
    101324.238037
    101324.238057
    101324.238076
    101324.238093
    101324.23811
    101324.238125
    101324.238139
    101324.238151
    101324.238162
    101324.238173
    101324.238182
    101324.238189
    101324.238196
    101324.238202
    101324.238207
    101324.238211
    101324.238213
    101324.265255
    101324.265255
    101324.265254
    101324.265252
    101324.265251
    101324.265251
    101324.265253
    101324.265255
    101324.26526
    101324.265267
    101324.265276
    101324.265288
    101324.265302
    101324.265319
    101324.265337
    101324.265358
    101324.26538
    101324.265404
    101324.265429
    101324.265454
    101324.26548
    101324.265505
    101324.265531
    101324.265556
    101324.26558
    101324.265603
    101324.265625
    101324.265646
    101324.265665
    101324.265683
    101324.2657
    101324.265715
    101324.265729
    101324.265742
    101324.265753
    101324.265763
    101324.265772
    101324.26578
    101324.265786
    101324.265792
    101324.265797
    101324.2658
    101324.265802
    101324.293533
    101324.293532
    101324.29353
    101324.293528
    101324.293526
    101324.293524
    101324.293524
    101324.293526
    101324.293529
    101324.293534
    101324.293542
    101324.293552
    101324.293565
    101324.29358
    101324.293598
    101324.293618
    101324.293639
    101324.293663
    101324.293687
    101324.293712
    101324.293738
    101324.293764
    101324.29379
    101324.293815
    101324.293839
    101324.293863
    101324.293885
    101324.293906
    101324.293926
    101324.293945
    101324.293962
    101324.293977
    101324.293991
    101324.294004
    101324.294015
    101324.294025
    101324.294034
    101324.294042
    101324.294048
    101324.294054
    101324.294058
    101324.294061
    101324.294063
    101324.322536
    101324.322535
    101324.322532
    101324.322529
    101324.322526
    101324.322523
    101324.322521
    101324.322521
    101324.322522
    101324.322525
    101324.322531
    101324.322539
    101324.32255
    101324.322564
    101324.32258
    101324.322598
    101324.322618
    101324.322641
    101324.322664
    101324.322689
    101324.322714
    101324.32274
    101324.322765
    101324.32279
    101324.322815
    101324.322839
    101324.322861
    101324.322883
    101324.322903
    101324.322922
    101324.322939
    101324.322955
    101324.322969
    101324.322982
    101324.322993
    101324.323003
    101324.323012
    101324.323019
    101324.323026
    101324.323031
    101324.323035
    101324.323038
    101324.32304
    101324.35231
    101324.352308
    101324.352305
    101324.352301
    101324.352296
    101324.352291
    101324.352287
    101324.352285
    101324.352284
    101324.352284
    101324.352288
    101324.352293
    101324.352302
    101324.352313
    101324.352326
    101324.352342
    101324.352361
    101324.352381
    101324.352403
    101324.352426
    101324.352451
    101324.352475
    101324.3525
    101324.352525
    101324.35255
    101324.352573
    101324.352596
    101324.352618
    101324.352638
    101324.352657
    101324.352674
    101324.35269
    101324.352704
    101324.352717
    101324.352729
    101324.352739
    101324.352748
    101324.352755
    101324.352762
    101324.352767
    101324.352771
    101324.352774
    101324.352775
    101324.382895
    101324.382893
    101324.382889
    101324.382883
    101324.382877
    101324.382871
    101324.382864
    101324.382859
    101324.382855
    101324.382853
    101324.382853
    101324.382856
    101324.382861
    101324.382869
    101324.382879
    101324.382892
    101324.382908
    101324.382926
    101324.382945
    101324.382967
    101324.382989
    101324.383013
    101324.383037
    101324.383061
    101324.383085
    101324.383108
    101324.383131
    101324.383152
    101324.383173
    101324.383192
    101324.383209
    101324.383225
    101324.38324
    101324.383253
    101324.383264
    101324.383275
    101324.383283
    101324.383291
    101324.383297
    101324.383303
    101324.383307
    101324.383309
    101324.383311
    101324.414333
    101324.414331
    101324.414325
    101324.414319
    101324.414311
    101324.414302
    101324.414293
    101324.414285
    101324.414278
    101324.414272
    101324.414269
    101324.414268
    101324.414269
    101324.414273
    101324.414279
    101324.414289
    101324.414301
    101324.414316
    101324.414332
    101324.414351
    101324.414371
    101324.414393
    101324.414415
    101324.414438
    101324.414461
    101324.414483
    101324.414505
    101324.414527
    101324.414547
    101324.414566
    101324.414584
    101324.4146
    101324.414615
    101324.414628
    101324.41464
    101324.41465
    101324.414659
    101324.414667
    101324.414673
    101324.414678
    101324.414682
    101324.414685
    101324.414687
    101324.446663
    101324.44666
    101324.446654
    101324.446646
    101324.446636
    101324.446625
    101324.446614
    101324.446603
    101324.446592
    101324.446583
    101324.446575
    101324.446569
    101324.446566
    101324.446566
    101324.446568
    101324.446573
    101324.44658
    101324.446591
    101324.446604
    101324.446619
    101324.446636
    101324.446654
    101324.446674
    101324.446695
    101324.446716
    101324.446738
    101324.446759
    101324.44678
    101324.4468
    101324.446819
    101324.446837
    101324.446853
    101324.446868
    101324.446882
    101324.446894
    101324.446905
    101324.446914
    101324.446922
    101324.446928
    101324.446934
    101324.446938
    101324.44694
    101324.446942
    101324.479922
    101324.479919
    101324.479912
    101324.479902
    101324.47989
    101324.479877
    101324.479863
    101324.479848
    101324.479834
    101324.479821
    101324.479809
    101324.479798
    101324.47979
    101324.479784
    101324.479781
    101324.479781
    101324.479783
    101324.479789
    101324.479797
    101324.479808
    101324.479821
    101324.479836
    101324.479853
    101324.479871
    101324.47989
    101324.47991
    101324.47993
    101324.47995
    101324.479969
    101324.479988
    101324.480006
    101324.480023
    101324.480038
    101324.480052
    101324.480065
    101324.480076
    101324.480086
    101324.480094
    101324.480101
    101324.480106
    101324.48011
    101324.480113
    101324.480114
    101324.514143
    101324.514139
    101324.514131
    101324.51412
    101324.514106
    101324.514091
    101324.514074
    101324.514056
    101324.514038
    101324.51402
    101324.514004
    101324.513988
    101324.513975
    101324.513963
    101324.513954
    101324.513948
    101324.513945
    101324.513944
    101324.513947
    101324.513953
    101324.513961
    101324.513972
    101324.513984
    101324.513999
    101324.514016
    101324.514033
    101324.514051
    101324.51407
    101324.514089
    101324.514107
    101324.514125
    101324.514142
    101324.514158
    101324.514173
    101324.514186
    101324.514198
    101324.514209
    101324.514218
    101324.514225
    101324.514231
    101324.514235
    101324.514237
    101324.514239
    101324.549357
    101324.549353
    101324.549344
    101324.549332
    101324.549316
    101324.549299
    101324.549279
    101324.549258
    101324.549236
    101324.549214
    101324.549193
    101324.549172
    101324.549153
    101324.549135
    101324.54912
    101324.549107
    101324.549097
    101324.54909
    101324.549087
    101324.549086
    101324.549088
    101324.549094
    101324.549102
    101324.549112
    101324.549125
    101324.549139
    101324.549155
    101324.549172
    101324.549189
    101324.549207
    101324.549225
    101324.549242
    101324.549258
    101324.549274
    101324.549289
    101324.549302
    101324.549313
    101324.549323
    101324.549332
    101324.549338
    101324.549343
    101324.549346
    101324.549348
    101324.585597
    101324.585592
    101324.585583
    101324.585569
    101324.585552
    101324.585532
    101324.58551
    101324.585486
    101324.585461
    101324.585434
    101324.585408
    101324.585382
    101324.585357
    101324.585333
    101324.585311
    101324.585291
    101324.585274
    101324.58526
    101324.585249
    101324.585241
    101324.585237
    101324.585236
    101324.585238
    101324.585243
    101324.58525
    101324.58526
    101324.585273
    101324.585287
    101324.585302
    101324.585319
    101324.585336
    101324.585353
    101324.58537
    101324.585386
    101324.585402
    101324.585417
    101324.58543
    101324.585442
    101324.585452
    101324.58546
    101324.585465
    101324.585469
    101324.585471
    101324.622886
    101324.622881
    101324.622871
    101324.622857
    101324.622839
    101324.622817
    101324.622793
    101324.622766
    101324.622738
    101324.622708
    101324.622678
    101324.622647
    101324.622617
    101324.622588
    101324.622559
    101324.622533
    101324.622509
    101324.622487
    101324.622469
    101324.622453
    101324.622441
    101324.622432
    101324.622427
    101324.622425
    101324.622426
    101324.622431
    101324.622438
    101324.622448
    101324.62246
    101324.622474
    101324.62249
    101324.622506
    101324.622524
    101324.622541
    101324.622558
    101324.622574
    101324.622589
    101324.622603
    101324.622615
    101324.622625
    101324.622632
    101324.622637
    101324.622639
    101324.661226
    101324.661221
    101324.661211
    101324.661196
    101324.661177
    101324.661154
    101324.661129
    101324.661101
    101324.66107
    101324.661038
    101324.661005
    101324.66097
    101324.660936
    101324.660902
    101324.660869
    101324.660837
    101324.660806
    101324.660778
    101324.660752
    101324.660729
    101324.66071
    101324.660693
    101324.660681
    101324.660672
    101324.660666
    101324.660665
    101324.660667
    101324.660672
    101324.660681
    101324.660692
    101324.660706
    101324.660722
    101324.660739
    101324.660758
    101324.660777
    101324.660797
    101324.660816
    101324.660834
    101324.66085
    101324.660863
    101324.660873
    101324.66088
    101324.660883
    101324.700628
    101324.700623
    101324.700613
    101324.700598
    101324.700579
    101324.700556
    101324.70053
    101324.7005
    101324.700469
    101324.700434
    101324.700399
    101324.700361
    101324.700324
    101324.700285
    101324.700247
    101324.70021
    101324.700174
    101324.70014
    101324.700108
    101324.700078
    101324.700051
    101324.700028
    101324.700008
    101324.699992
    101324.69998
    101324.699972
    101324.699969
    101324.699969
    101324.699973
    101324.699981
    101324.699992
    101324.700007
    101324.700025
    101324.700045
    101324.700067
    101324.700091
    101324.700115
    101324.70014
    101324.700163
    101324.700184
    101324.700202
    101324.700214
    101324.70022
    101324.741153
    101324.741148
    101324.741138
    101324.741123
    101324.741104
    101324.741081
    101324.741055
    101324.741025
    101324.740993
    101324.740958
    101324.74092
    101324.740881
    101324.740841
    101324.7408
    101324.740758
    101324.740716
    101324.740676
    101324.740636
    101324.740597
    101324.740561
    101324.740528
    101324.740497
    101324.740469
    101324.740445
    101324.740426
    101324.74041
    101324.740398
    101324.740391
    101324.740388
    101324.74039
    101324.740396
    101324.740407
    101324.740422
    101324.740441
    101324.740464
    101324.740491
    101324.74052
    101324.740552
    101324.740584
    101324.740615
    101324.740643
    101324.740664
    101324.740676
    101324.782905
    101324.782901
    101324.782891
    101324.782877
    101324.782859
    101324.782837
    101324.782812
    101324.782783
    101324.782751
    101324.782716
    101324.782679
    101324.782639
    101324.782597
    101324.782554
    101324.78251
    101324.782466
    101324.782421
    101324.782377
    101324.782334
    101324.782292
    101324.782252
    101324.782214
    101324.782179
    101324.782147
    101324.782119
    101324.782094
    101324.782073
    101324.782056
    101324.782044
    101324.782037
    101324.782034
    101324.782037
    101324.782045
    101324.782058
    101324.782077
    101324.782101
    101324.782132
    101324.782167
    101324.782207
    101324.782249
    101324.782289
    101324.782323
    101324.782343
    101324.82608
    101324.826076
    101324.826067
    101324.826055
    101324.826038
    101324.826018
    101324.825995
    101324.825968
    101324.825938
    101324.825905
    101324.825869
    101324.825831
    101324.82579
    101324.825748
    101324.825704
    101324.825659
    101324.825614
    101324.825568
    101324.825522
    101324.825477
    101324.825432
    101324.82539
    101324.825349
    101324.82531
    101324.825274
    101324.825241
    101324.825211
    101324.825184
    101324.825162
    101324.825143
    101324.825129
    101324.825119
    101324.825115
    101324.825116
    101324.825123
    101324.825137
    101324.825158
    101324.825188
    101324.825226
    101324.825272
    101324.825323
    101324.825371
    101324.825403
    101324.871052
    101324.871048
    101324.871041
    101324.871031
    101324.871017
    101324.871
    101324.87098
    101324.870957
    101324.870931
    101324.870902
    101324.870871
    101324.870837
    101324.870801
    101324.870762
    101324.870722
    101324.87068
    101324.870637
    101324.870594
    101324.870549
    101324.870505
    101324.870461
    101324.870417
    101324.870375
    101324.870333
    101324.870293
    101324.870255
    101324.870219
    101324.870185
    101324.870153
    101324.870124
    101324.870098
    101324.870075
    101324.870055
    101324.870038
    101324.870025
    101324.870016
    101324.870014
    101324.870019
    101324.870035
    101324.870064
    101324.870107
    101324.870159
    101324.870203
    101324.9186
    101324.918598
    101324.918593
    101324.918585
    101324.918575
    101324.918563
    101324.918549
    101324.918532
    101324.918513
    101324.918491
    101324.918467
    101324.918442
    101324.918414
    101324.918384
    101324.918352
    101324.918319
    101324.918285
    101324.91825
    101324.918213
    101324.918176
    101324.918139
    101324.918101
    101324.918063
    101324.918026
    101324.917989
    101324.917953
    101324.917918
    101324.917883
    101324.917849
    101324.917817
    101324.917784
    101324.917752
    101324.91772
    101324.917688
    101324.917654
    101324.917617
    101324.917578
    101324.917536
    101324.917494
    101324.917457
    101324.917434
    101324.917435
    101324.917459
    101324.970342
    101324.970341
    101324.970339
    101324.970335
    101324.970331
    101324.970326
    101324.97032
    101324.970312
    101324.970304
    101324.970294
    101324.970284
    101324.970272
    101324.970259
    101324.970245
    101324.97023
    101324.970215
    101324.970198
    101324.970181
    101324.970162
    101324.970144
    101324.970125
    101324.970105
    101324.970085
    101324.970065
    101324.970044
    101324.970024
    101324.970003
    101324.969983
    101324.969962
    101324.969941
    101324.96992
    101324.969897
    101324.969874
    101324.969847
    101324.969817
    101324.969779
    101324.96973
    101324.969664
    101324.96957
    101324.969441
    101324.969271
    101324.969071
    101324.968899
)
;

boundaryField {
  top
  {
    type            fixedValue;
    value           uniform 101325;
  }
  bottom
  {
    type            fixedValue;
    value           uniform 101324;
  }
  wedge1
  {
    type            wedge;
  }
  wedge2
  {
    type            wedge;
  }
  porousMat_to_tank
  {
    type            zeroGradient;
  }
}


// ************************************************************************* //
