/*--------------------------------*- C++ -*----------------------------------*\
  =========                 |
  \\      /  F ield         | OpenFOAM: The Open Source CFD Toolbox
   \\    /   O peration     | Website:  https://openfoam.org
    \\  /    A nd           | Version:  7
     \\/     M anipulation  |
\*---------------------------------------------------------------------------*/
FoamFile {
  version     2.0;
  format      ascii;
  class       volScalarField;
  location    "3600/porousMat";
  object      Ta;
}
// * * * * * * * * * * * * * * * * * * * * * * * * * * * * * * * * * * * * * //

dimensions      [0 0 0 1 0 0 0];

internalField   nonuniform List<scalar>
1290
(
    450.885196965
    450.87388581
    450.849970718
    450.81454552
    450.767741161
    450.709473285
    450.639649055
    450.558280697
    450.465549246
    450.361833738
    450.247714901
    450.12396048
    449.991498171
    449.851381215
    449.70475087
    449.552799043
    449.396733516
    449.237747343
    449.076993318
    448.915563804
    448.754475781
    448.59466073
    448.436958707
    448.28211597
    448.130785446
    447.983529405
    447.840823777
    447.703063611
    447.570569302
    447.443593266
    447.32232687
    447.206907476
    447.097425612
    446.993932468
    446.896448185
    446.804971961
    446.719495719
    446.640024087
    446.566604366
    446.499370405
    446.438602687
    446.384801935
    446.338763979
    451.731388751
    451.720039626
    451.69604149
    451.660486643
    451.613499915
    451.554989249
    451.484853667
    451.403097637
    451.309895478
    451.205621022
    451.090851619
    450.966353609
    450.833055223
    450.692011999
    450.544368956
    450.391322843
    450.234086925
    450.07385995
    449.91180021
    449.749004987
    449.586495296
    449.425205501
    449.26597721
    449.109556747
    448.956595505
    448.807652525
    448.663198684
    448.523621995
    448.389233591
    448.260274025
    448.136919637
    448.019288768
    447.90744775
    447.801416783
    447.701176159
    447.60667408
    447.517838575
    447.434598132
    447.356918651
    447.28486776
    447.218720235
    447.15911783
    447.107289731
    453.348628305
    453.337204148
    453.313042016
    453.277231396
    453.229885303
    453.170896766
    453.100149047
    453.017631619
    452.923505838
    452.818135542
    452.702091671
    452.576138018
    452.44120408
    452.298350144
    452.148728889
    451.993546896
    451.834028607
    451.671384444
    451.506784106
    451.341335286
    451.176067819
    451.011922829
    450.849746292
    450.690286281
    450.534193192
    450.38202225
    450.23423768
    450.091217995
    449.953261979
    449.820595
    449.693375408
    449.571700882
    449.455614731
    449.345112437
    449.240149137
    449.140649604
    449.046523684
    448.957692424
    448.874133625
    448.795960141
    448.723549669
    448.657749454
    448.600180867
    455.69436332
    455.6828309
    455.658432044
    455.622251999
    455.574386486
    455.514706719
    455.443072877
    455.359452435
    455.263987674
    455.157027672
    455.039133844
    454.911066137
    454.773755852
    454.628270287
    454.475773546
    454.31748701
    454.154652103
    453.988497211
    453.820209884
    453.650914516
    453.481655638
    453.313386423
    453.146961814
    452.983135529
    452.822560219
    452.665790053
    452.513285085
    452.365416846
    452.222474706
    452.084672654
    451.952156254
    451.825009629
    451.703262528
    451.586897741
    451.475859669
    451.370065739
    451.269424073
    451.173863587
    451.08338711
    450.998164228
    450.91868833
    450.846030661
    450.782231399
    458.719141138
    458.707471141
    458.682771239
    458.646120861
    458.597593175
    458.537030987
    458.464264357
    458.379231961
    458.282050992
    458.173050981
    458.052780578
    457.921994388
    457.781625837
    457.632751314
    457.476550023
    457.314263182
    457.147155264
    456.976479389
    456.803448196
    456.629210164
    456.454831802
    456.281285353
    456.109441387
    455.940065564
    455.773818789
    455.611260023
    455.452851047
    455.298962614
    455.149881476
    455.005817926
    454.866913574
    454.733249213
    454.604852778
    454.481707706
    454.363762511
    454.250943401
    454.14317365
    454.04040661
    453.942684462
    453.850242392
    453.763688113
    453.684298966
    453.614491759
    462.3805794
    462.368748042
    462.343694588
    462.306490751
    462.257182075
    462.195576627
    462.121467556
    462.034758059
    461.935534197
    461.824100967
    461.700990678
    461.566950665
    461.422916334
    461.269974816
    461.109323784
    460.942229179
    460.769984663
    460.593875159
    460.415146284
    460.234978951
    460.054470201
    459.874619895
    459.696322658
    459.52036432
    459.347422079
    459.178067574
    459.012772145
    458.851913631
    458.695784156
    458.544598475
    458.398502553
    458.25758218
    458.121871598
    457.991362452
    457.866013907
    457.745765973
    457.630560116
    457.520374891
    457.415290232
    457.315602919
    457.22202812
    457.136037606
    457.060403482
    466.637766341
    466.625756015
    466.600309687
    466.562489082
    466.512307204
    466.44953133
    466.3739111
    466.285307631
    466.183769679
    466.06957241
    465.943227725
    465.805473155
    465.657245289
    465.499643045
    465.333885441
    465.161267744
    464.983118833
    464.800762553
    464.615485844
    464.428511175
    464.24097569
    464.053916651
    463.868262511
    463.684828886
    463.504318597
    463.327324942
    463.154337396
    462.98574901
    462.821864915
    462.662911396
    462.50904518
    462.360362685
    462.216909183
    462.078688194
    461.945672051
    461.817815841
    461.695079197
    461.577464454
    461.465086249
    461.358297713
    461.257912718
    461.165582487
    461.084407914
    471.452757585
    471.440557893
    471.414694749
    471.376217147
    471.325100825
    471.261066484
    471.183813882
    471.093155474
    470.989096344
    470.871876059
    470.741981342
    470.6001365
    470.447277525
    470.284515211
    470.113092004
    469.934336577
    469.74961879
    469.560308138
    469.367741339
    469.173191924
    468.977847349
    468.782792858
    468.589001383
    468.397328787
    468.208513546
    468.023180028
    467.841844467
    467.664922838
    467.492739944
    467.325539136
    467.163492207
    467.006709203
    466.855248075
    466.709124496
    466.568322908
    466.432811154
    466.302563621
    466.17760214
    466.05807108
    465.9443742
    465.837416765
    465.739018088
    465.652587061
    476.789359734
    476.776968437
    476.750681948
    476.711533288
    476.659456413
    476.594120013
    476.515167857
    476.422357227
    476.315642939
    476.195222633
    476.061552182
    475.915338024
    475.757512302
    475.589196138
    475.411655878
    475.226256492
    475.034414485
    474.837551452
    474.637062094
    474.434280486
    474.230454812
    474.026729268
    473.824132423
    473.623571334
    473.425830553
    473.231575109
    473.041356514
    472.85562093
    472.674718703
    472.498914625
    472.328398407
    472.163295051
    472.00367504
    471.849564684
    471.700957772
    471.557831081
    471.42016908
    471.288007802
    471.161515703
    471.041141263
    470.927874472
    470.823693125
    470.732296037
    482.612702718
    482.600127027
    482.573430843
    482.533627428
    482.480604758
    482.413974573
    482.333318974
    482.23833379
    482.12891689
    482.005217212
    481.867653252
    481.716907667
    481.553903762
    481.379769139
    481.195791294
    481.003369554
    480.803968044
    480.599072506
    480.390143981
    480.178586052
    479.965717779
    479.752753289
    479.540788116
    479.330791749
    479.12360553
    478.919944968
    478.720405473
    478.525470577
    478.335521768
    478.150849224
    477.971662856
    477.798103301
    477.630252735
    477.468145891
    477.311782442
    477.161143531
    477.016218121
    476.877049946
    476.743824257
    476.617026474
    476.497723444
    476.388043033
    476.291960195
    488.888800608
    488.876053833
    488.848974714
    488.80855276
    488.754626141
    488.68674521
    488.604425188
    488.507294475
    488.395187402
    488.268197283
    488.126698358
    487.971343147
    487.80304082
    487.622921801
    487.432293362
    487.232590558
    487.025327452
    486.812052395
    486.594297403
    486.373543156
    486.15118893
    485.92852931
    485.706738014
    485.486858337
    485.269799443
    485.05633756
    484.847121075
    484.642678526
    484.443428569
    484.249691101
    484.061698907
    483.879609357
    483.703516036
    483.533460624
    483.369446274
    483.211455332
    483.059477387
    482.913558985
    482.773895396
    482.640998741
    482.515997178
    482.40114739
    482.300678049
    495.585777528
    495.572878957
    495.545456533
    495.50447187
    495.44970996
    495.380655887
    495.296753292
    495.197557487
    495.082832707
    494.952609376
    494.807209844
    494.647248939
    494.473614771
    494.28743489
    494.090032525
    493.882877231
    493.667533302
    493.445608229
    493.218708309
    492.988397659
    492.756164194
    492.523393029
    492.291347252
    492.061155711
    491.833807121
    491.610149617
    491.390894745
    491.176624881
    490.967803081
    490.76478448
    490.567828517
    490.377111439
    490.192738901
    490.014758964
    489.843176772
    489.677973829
    489.519138107
    489.366716828
    489.220913152
    489.082262686
    488.95194748
    488.832335354
    488.727872657
    502.673324562
    502.660301828
    502.632593673
    502.591129404
    502.535638013
    502.465536184
    502.380191957
    502.279082358
    502.161895035
    502.028589805
    501.879428407
    501.714978587
    501.536097753
    501.34390109
    501.139718752
    500.925046397
    500.701492971
    500.470729205
    500.234438254
    499.994272077
    499.751814117
    499.508549105
    499.265840309
    499.024914076
    498.786851134
    498.552583884
    498.322898728
    498.098442434
    497.879731512
    497.667163653
    497.461030409
    497.261530501
    497.068783448
    496.882843841
    496.703717573
    496.531382949
    496.365823169
    496.207082619
    496.055369096
    495.911239303
    495.775927235
    495.651906334
    495.543818267
    510.121349808
    510.108237534
    510.080316321
    510.038478713
    509.982395564
    509.911412917
    509.82482007
    509.722011271
    509.602591503
    509.466442257
    509.313755458
    509.145041422
    508.961115859
    508.763070624
    508.552232684
    508.330115458
    508.098366237
    507.858712957
    507.612913377
    507.36270841
    507.109781263
    506.855723395
    506.602007846
    506.34996999
    506.100795386
    505.855514118
    505.615000784
    505.379979191
    505.15103072
    504.928605405
    504.713034805
    504.504545954
    504.303275981
    504.109287669
    503.922587571
    503.743149247
    503.570948277
    503.406022134
    503.248577899
    503.099186485
    502.959125072
    502.830961608
    502.719518443
    517.899935958
    517.886775839
    517.858729589
    517.816648571
    517.760144236
    517.688490838
    517.600896952
    517.49667059
    517.375328749
    517.236667237
    517.080798806
    516.908165205
    516.719527951
    516.515942287
    516.298718574
    516.069375155
    515.829586354
    515.581128824
    515.325828932
    515.06551374
    514.801966949
    514.536891037
    514.271876428
    514.008378014
    513.747698952
    513.490981325
    513.239203018
    512.993179962
    512.753572803
    512.520897014
    512.295535496
    512.077752866
    511.8677108
    511.665484476
    511.471083094
    511.284475634
    511.10562865
    510.934570035
    510.771502476
    510.61700634
    510.472395225
    510.340320273
    510.225763678
    525.978705399
    525.965545824
    525.937477141
    525.895305311
    525.838582133
    525.766510221
    525.678216879
    525.572921755
    525.45004965
    525.309304098
    525.150709559
    524.974627686
    524.78175218
    524.573086472
    524.349908247
    524.113724656
    523.866221696
    523.609210877
    523.344575908
    523.074222109
    522.800029708
    522.52381239
    522.247282352
    521.972022351
    521.699464938
    521.43087875
    521.167361429
    520.909838514
    520.659067517
    520.415646259
    520.18002456
    519.952518471
    519.733326149
    519.52254378
    519.320188919
    519.126229108
    518.940622385
    518.76338518
    518.594711879
    518.435186735
    518.286152607
    518.150333973
    518.032856183
    534.326006868
    534.312902914
    534.28492912
    534.24284217
    534.186135039
    534.113940443
    534.02530546
    533.91936097
    533.795436924
    533.653139171
    533.49239548
    533.313475962
    533.116992181
    532.903878951
    532.675362602
    532.432919336
    532.178226965
    531.913112951
    531.639501256
    531.359361412
    531.07466014
    530.787316954
    530.499165423
    530.211920819
    529.92715456
    529.646275568
    529.370518404
    529.100937793
    528.838408945
    528.583632924
    528.337146286
    528.099334257
    527.870447124
    527.650619818
    527.43989318
    527.238242867
    527.04562344
    526.862040758
    526.687677604
    526.52311458
    526.369712399
    526.230254476
    526.10999187
    542.910288848
    542.897297622
    542.869540694
    542.827722203
    542.771278333
    542.699274956
    542.61068164
    542.504541714
    542.38008926
    542.236828571
    542.074583556
    541.893522097
    541.694159424
    541.477344271
    541.244231362
    540.99624362
    540.735027155
    540.462401686
    540.180308453
    539.890760636
    539.595794667
    539.297423792
    538.997596369
    538.698159656
    538.400829628
    538.10716721
    537.81856108
    537.536216956
    537.261153084
    536.994201432
    536.736013971
    536.48707343
    536.247708331
    536.018113867
    535.798372797
    535.588485689
    535.388418032
    535.198176152
    535.017937253
    534.848276441
    534.690558365
    534.547594817
    534.424713773
    551.700745087
    551.687924618
    551.660508953
    551.619147226
    551.563221995
    551.491736843
    551.403588209
    551.297735014
    551.173316453
    551.029733346
    550.866700363
    550.684273915
    550.482859602
    550.263202765
    550.026365493
    549.773693247
    549.506773909
    549.227391567
    548.93747578
    548.639055582
    548.334212346
    548.02503246
    547.713563933
    547.401777403
    547.091532081
    546.784547183
    546.482379267
    546.186405711
    545.897814384
    545.617599373
    545.346562466
    545.085319997
    544.834314634
    544.593832165
    544.364025096
    544.144945556
    543.936594114
    543.738998487
    543.552347338
    543.377221885
    543.214993347
    543.068488889
    542.943074522
    560.665454816
    560.652866122
    560.625922934
    560.585217635
    560.530083682
    560.459468647
    560.372202306
    560.267164625
    560.143403373
    560.000216526
    559.837206569
    559.654311344
    559.451815164
    559.230343548
    558.990844819
    558.734561514
    558.462994278
    558.177860234
    557.881042637
    557.574550788
    557.260477051
    556.940949802
    556.618090094
    556.293971572
    555.970583963
    555.649800756
    555.333351617
    555.02280002
    554.719526477
    554.42471759
    554.139361076
    553.864246841
    553.599974232
    553.346965906
    553.10548944
    552.87568991
    552.657640214
    552.451422526
    552.257265692
    552.07578105
    551.908364584
    551.757867879
    551.629685908
    569.770510651
    569.758215629
    569.731878481
    569.692033964
    569.637972256
    569.568592903
    569.482667539
    569.379005044
    569.256567956
    569.114554984
    568.952456563
    568.770087903
    568.567603104
    568.345493573
    568.104573845
    567.845957723
    567.57102752
    567.28139924
    566.978872828
    566.665396351
    566.343030543
    566.013903447
    565.68016941
    565.343970133
    565.007397872
    564.672461298
    564.34105459
    564.014930265
    563.695676361
    563.384698514
    563.083207495
    562.792212798
    562.512522992
    562.244753927
    561.989346638
    561.746598309
    561.516712891
    561.299884217
    561.096435469
    560.907056471
    560.733205934
    560.577780667
    560.44619982
    578.978455485
    578.96651659
    578.940920697
    578.902144956
    578.849443411
    578.78167729
    578.697570751
    578.595872036
    578.475467648
    578.335464035
    578.175243488
    577.994498545
    577.793248301
    577.571839704
    577.330936794
    577.071500533
    576.794761675
    576.502189272
    576.195463303
    575.876434371
    575.547082331
    575.209481923
    574.865767226
    574.51809633
    574.168616913
    573.819433063
    573.472573724
    573.129963102
    572.79339359
    572.464501892
    572.14474922
    571.835406607
    571.537546763
    571.252044428
    570.979588057
    570.720707012
    570.475821085
    570.245324365
    570.029725611
    569.829884491
    569.647408837
    569.485312516
    569.349076224
    588.246272535
    588.234746715
    588.210015919
    588.172500807
    588.121427335
    588.055629223
    587.973795297
    587.874625578
    587.756942282
    587.619769798
    587.462390073
    587.284377543
    587.085616858
    586.86630636
    586.626950212
    586.368341764
    586.091540592
    585.797844944
    585.488770724
    585.166015045
    584.831420288
    584.486946555
    584.134641851
    583.776612304
    583.414992741
    583.051917663
    582.689492618
    582.329765882
    581.97470065
    581.626148301
    581.285823536
    580.955282702
    580.635907233
    580.328895236
    580.035265417
    579.755879108
    579.491487937
    579.242818133
    579.010710225
    578.796349039
    578.601645842
    578.429872918
    578.286698278
    597.523776623
    597.512713782
    597.488957231
    597.452873353
    597.403668771
    597.340161363
    597.261017961
    597.164904464
    597.050592862
    596.917038705
    596.763435209
    596.589247913
    596.394233003
    596.178442175
    595.942216833
    595.686174264
    595.411188299
    595.118366481
    594.809023192
    594.484653252
    594.14690792
    593.797569686
    593.438528216
    593.071757231
    592.699291991
    592.323207083
    591.945594414
    591.568540507
    591.194102828
    590.824285273
    590.461013244
    590.106109329
    589.761271707
    589.428059043
    589.107887899
    588.802051
    588.511766525
    588.238269229
    587.982956529
    587.74761403
    587.534769959
    587.348272063
    587.194243268
    606.744254998
    606.733697303
    606.711007939
    606.67650228
    606.629376934
    606.568446247
    606.492369339
    606.39979349
    606.289456522
    606.160261101
    606.011326874
    605.84202412
    605.651991868
    605.441143204
    605.209660442
    604.957982651
    604.686787881
    604.396972166
    604.089627452
    603.766019059
    603.427563812
    603.075810048
    602.712419224
    602.339149166
    601.957838637
    601.570392944
    601.178770955
    600.784971536
    600.391018671
    599.998945057
    599.610773982
    599.228499803
    598.85406866
    598.489363383
    598.136200186
    597.796349172
    597.471595031
    597.163853382
    596.875349927
    596.608870614
    596.368101677
    596.15811879
    595.986163633
    615.805689174
    615.795665663
    615.774108624
    615.741286872
    615.696396431
    615.638260372
    615.5655445
    615.476893512
    615.371028261
    615.246816428
    615.10332217
    614.93983821
    614.755903123
    614.55130638
    614.32608372
    614.080505235
    613.815058505
    613.530428811
    613.227478046
    612.907224082
    612.570821487
    612.219544082
    611.854769919
    611.477968792
    611.090691919
    610.694563394
    610.291276094
    609.882587892
    609.47031741
    609.056339404
    608.642579175
    608.231005657
    607.823624019
    607.422471363
    607.029623983
    606.647231461
    606.277604732
    605.923392001
    605.587848387
    605.275196718
    604.991046655
    604.742842695
    604.540387557
    624.536403948
    624.526923926
    624.506522348
    624.475427293
    624.432843182
    624.377613182
    624.308423293
    624.2239311
    624.122857717
    624.004054601
    623.866550425
    623.709581287
    623.532606773
    623.335314298
    623.11761413
    622.879627352
    622.621669017
    622.344228461
    622.047948509
    621.733604907
    621.402087096
    621.054381198
    620.691555745
    620.314750438
    619.925167441
    619.524063428
    619.112751238
    618.692602321
    618.265049692
    617.831592911
    617.393804576
    616.953337804
    616.511935095
    616.071441691
    615.633832928
    615.201276745
    614.776268723
    614.361894469
    613.962278388
    613.58323453
    613.233045063
    612.923177541
    612.668698963
    632.628560423
    632.619598949
    632.600302726
    632.570866646
    632.530510805
    632.478107072
    632.412372072
    632.331988848
    632.235693674
    632.122339104
    631.990938099
    631.840692282
    631.671006691
    631.481493234
    631.271965132
    631.04242446
    630.793044881
    630.52415144
    630.236199013
    629.929750774
    629.60545778
    629.264040461
    628.906272717
    628.53296919
    628.144975477
    627.743154592
    627.328388766
    626.901581431
    626.463659361
    626.015578795
    625.558335079
    625.092975576
    624.620616308
    624.142464714
    623.659856915
    623.17433265
    622.687795835
    622.202849774
    621.72345989
    621.256091711
    620.8113723
    620.406033746
    620.064420259
    639.504745104
    639.496224768
    639.477871275
    639.449855924
    639.411418344
    639.361462451
    639.298739937
    639.221965867
    639.129901104
    639.021412108
    638.895512689
    638.751390566
    638.588420971
    638.406169305
    638.204385061
    637.982988934
    637.742055093
    637.481790374
    637.202511876
    636.904624174
    636.588597184
    636.254945356
    635.904208742
    635.53693631
    635.153672423
    634.754948139
    634.341269333
    633.913108844
    633.470902953
    633.015050242
    632.54591266
    632.063818811
    631.569069484
    631.061945851
    630.542723143
    630.011701838
    629.469295332
    628.916275714
    628.354398018
    627.787805631
    627.225796525
    626.687494697
    626.208289785
    644.043652938
    644.035415131
    644.017667017
    643.990567885
    643.953373965
    643.905014645
    643.844269815
    643.769881543
    643.680633656
    643.575409431
    643.453231807
    643.313288859
    643.154946681
    642.977751567
    642.781423651
    642.56584382
    642.331035773
    642.077144916
    641.804415481
    641.513167018
    641.203771236
    640.876629787
    640.532153516
    640.170743329
    639.792773308
    639.398581873
    638.988451575
    638.56259442
    638.121141999
    637.664135996
    637.191519017
    636.703125611
    636.198673124
    635.677751593
    635.139811128
    634.584144317
    634.009863498
    633.415891487
    632.80105732
    632.164604921
    631.507967663
    630.839884407
    630.189489816
)
;

boundaryField {
  top
  {
    type            zeroGradient;
  }
  bottom
  {
    type            zeroGradient;
  }
  wedge1
  {
    type            wedge;
  }
  wedge2
  {
    type            wedge;
  }
  porousMat_to_tank
  {
    type            compressible::turbulentTemperatureCoupledBaffleMixed;
    refValue        nonuniform List<scalar>
    30
    (
        446.301634013
        447.06532739
        448.553668089
        450.730875971
        453.558537164
        457.000040924
        461.019900919
        465.584192106
        470.660271065
        476.216551136
        482.222131831
        488.646510116
        495.459962993
        502.633415875
        510.137627334
        517.942869481
        526.018296252
        534.331449104
        542.848370123
        551.533475604
        560.348119454
        569.248345406
        578.181829129
        587.08262537
        595.862961358
        604.396665139
        612.48828746
        619.818352064
        625.84581786
        629.637303452
    )
    ;
    refGradient     uniform 0;
    valueFraction   uniform 0.512566235779;
    Tnbr            Ta;
    thicknessLayers 0 ( );
    kappaLayers     0 ( );
    kappaMethod     lookup;
    kappa           k_abl_sym;
    alphaAni        Anialpha;
    value           nonuniform List<scalar>
    30
    (
        446.319732412
        447.085781252
        448.576339988
        450.755908341
        453.585811323
        457.029463673
        461.051343806
        465.617530117
        470.695378468
        476.253308057
        482.26041791
        488.686168966
        495.500836885
        502.675385174
        510.180587964
        517.986732038
        526.062991792
        534.376909453
        542.894532245
        551.580371754
        560.395927136
        569.297445008
        578.232945893
        587.137031703
        595.923014307
        604.466720299
        612.576226118
        619.938294011
        626.022498915
        629.90645773
    )
    ;
  }
}


// ************************************************************************* //
