/*--------------------------------*- C++ -*----------------------------------*\
  =========                 |
  \\      /  F ield         | OpenFOAM: The Open Source CFD Toolbox
   \\    /   O peration     | Website:  https://openfoam.org
    \\  /    A nd           | Version:  7
     \\/     M anipulation  |
\*---------------------------------------------------------------------------*/
FoamFile {
  version     2.0;
  format      ascii;
  class       volScalarField;
  location    "3600/porousMat";
  object      Tg;
}
// * * * * * * * * * * * * * * * * * * * * * * * * * * * * * * * * * * * * * //

dimensions      [0 0 0 1 0 0 0];

internalField   nonuniform List<scalar>
1290
(
    452.657806693
    452.646510149
    452.622624117
    452.587237549
    452.540475691
    452.482247884
    452.412453246
    452.331095496
    452.238345884
    452.134573781
    452.020350508
    451.896435081
    451.763747629
    451.623334705
    451.476332731
    451.323929098
    451.167329178
    451.007722381
    450.846258297
    450.684026432
    450.522040093
    450.361226767
    450.202420926
    450.04636296
    449.893697899
    449.744979161
    449.600672819
    449.461162029
    449.326753223
    449.197681199
    449.074112477
    448.956138111
    448.843750298
    448.736765893
    448.634650257
    448.536126444
    448.438408503
    448.335828299
    448.217635948
    448.064927568
    447.847158716
    447.519627639
    447.024746503
    454.878341209
    454.867016456
    454.84306523
    454.80756755
    454.760634876
    454.702159633
    454.632022776
    454.550209429
    454.456874
    454.352370646
    454.237258327
    454.112287339
    453.978372437
    453.836558718
    453.687983633
    453.533839398
    453.375337463
    453.213673608
    453.050003668
    452.88542332
    452.72095118
    452.557517751
    452.39595935
    452.237014838
    452.0813263
    451.929440772
    451.781815117
    451.638821584
    451.500751975
    451.367824545
    451.240183036
    451.117890529
    451.00089438
    450.88892919
    450.781277199
    450.676223125
    450.569912697
    450.454145143
    450.312447379
    450.113720166
    449.803066199
    449.290441034
    448.439864066
    457.284145093
    457.272726201
    457.248568732
    457.212747541
    457.165357338
    457.106269437
    457.03534254
    456.952540202
    456.857997678
    456.752054121
    456.635258164
    456.508355077
    456.372260299
    456.228023883
    456.076793496
    455.919774948
    455.758197065
    455.593270872
    455.4261689
    455.258002367
    455.089804568
    454.922518633
    454.756990194
    454.593965243
    454.434089937
    454.277912172
    454.125887398
    453.978383565
    453.835687048
    453.698007536
    453.565480309
    453.438157904
    453.315974869
    453.198647377
    453.085418704
    452.974479769
    452.861718834
    452.738220561
    452.585564282
    452.367575257
    452.016879767
    451.41471753
    450.363457049
    460.550060626
    460.538535803
    460.51414404
    460.477952137
    460.430032274
    460.370227541
    460.298366952
    460.21438499
    460.118390637
    460.0107019
    459.891852032
    459.762577924
    459.623793445
    459.47655399
    459.322018548
    459.161410083
    458.995980485
    458.826959769
    458.655540719
    458.482856237
    458.309959444
    458.137810869
    457.967271634
    457.799098753
    457.633946028
    457.472367674
    457.314820436
    457.161672821
    457.013208755
    456.869635022
    456.731081635
    456.597594002
    456.469089217
    456.345242746
    456.225187589
    456.106831204
    455.985372604
    455.850299245
    455.679673178
    455.429889336
    455.018409587
    454.296350884
    453.007535649
    464.370856721
    464.359188171
    464.334480394
    464.297791251
    464.249165775
    464.188413325
    464.115326393
    464.029804302
    463.931924892
    463.821980651
    463.700487869
    463.568174035
    463.42595309
    463.274889498
    463.116158194
    462.951006816
    462.780722606
    462.606560539
    462.429741719
    462.251429493
    462.072707456
    461.89456394
    461.717883761
    461.543445814
    461.371920996
    461.203877045
    461.039782354
    460.880013668
    460.724861973
    460.574539708
    460.429181602
    460.288836609
    460.1534214
    460.022596434
    459.895442954
    459.769709999
    459.640164057
    459.495189787
    459.31018204
    459.035417735
    458.57501913
    457.752371597
    456.256026487
    468.803261609
    468.79143299
    468.766372679
    468.729127573
    468.679710589
    468.617891418
    468.543419851
    468.456153766
    468.356133638
    468.243621602
    468.119112273
    467.983321764
    467.837163152
    467.681710026
    467.518156833
    467.347780591
    467.171919901
    466.991854964
    466.808839061
    466.624075318
    466.438686121
    466.253696891
    466.070026521
    465.888483877
    465.709765968
    465.534463625
    465.363064012
    465.195959694
    465.033455454
    464.875775906
    464.723065
    464.57537745
    464.432628644
    464.294454062
    464.159852951
    464.026354439
    463.888183759
    463.73246287
    463.531762826
    463.230254428
    462.71927614
    461.796241555
    460.098476162
    473.775710534
    473.763703773
    473.738250548
    473.700384815
    473.650083322
    473.587069768
    473.511045497
    473.421820208
    473.31939123
    473.203985084
    473.076070501
    472.936349747
    472.785733562
    472.625306101
    472.456283034
    472.279976592
    472.097805877
    471.911069552
    471.721054682
    471.529013485
    471.336118294
    471.143442266
    470.951949416
    470.762489174
    470.575795797
    470.392491474
    470.213091435
    470.038012724
    469.867579998
    469.702034743
    469.541536108
    469.386148475
    469.235788095
    469.090071899
    468.947930122
    468.806695887
    468.660100862
    468.494098014
    468.278617295
    467.952100676
    467.393896697
    466.377162134
    464.491582389
    479.268017916
    479.255822664
    479.229953004
    479.191427454
    479.140181682
    479.075888708
    478.998194487
    478.906854775
    478.801817157
    478.683266445
    478.551640799
    478.407624129
    478.25212311
    478.086231277
    477.911186485
    477.728338137
    477.539241547
    477.345189293
    477.147495562
    476.94747157
    476.746350172
    476.545263476
    476.345231992
    476.147156595
    475.951818839
    475.759882569
    475.571899557
    475.388317357
    475.209487554
    475.035672429
    474.867048387
    474.703689642
    474.545512575
    474.392109011
    474.242326933
    474.09328287
    473.938187161
    473.761800837
    473.531443456
    473.180043446
    472.575647237
    471.468861163
    469.405434029
    485.246360527
    485.2339666
    485.207657255
    485.168432943
    485.116184412
    485.050528106
    484.971048937
    484.877441632
    484.76959759
    484.647653848
    484.512011929
    484.363332992
    484.202515919
    484.030662066
    483.849031419
    483.659002166
    483.462383602
    483.260399826
    483.054368382
    482.84567297
    482.635617622
    482.425405649
    482.216124799
    482.008739957
    481.804090998
    481.602893709
    481.405745278
    481.213131781
    481.025436555
    480.842948781
    480.665863096
    480.494266061
    480.328072725
    480.166849158
    480.009359685
    479.852503478
    479.688966554
    479.502319297
    479.257300401
    478.88148578
    478.232205843
    477.039143259
    474.807766162
    491.676869937
    491.664356458
    491.637774195
    491.598096337
    491.545165404
    491.478539212
    491.397739231
    491.302394988
    491.192336246
    491.067644653
    490.928676462
    490.776060417
    490.610677345
    490.433625758
    490.246177915
    490.049696857
    489.845318453
    489.634787862
    489.41974499
    489.201665796
    488.981937176
    488.761844942
    488.542557027
    488.325114546
    488.110427583
    487.89927512
    487.692310007
    487.490065122
    487.292963192
    487.101323618
    486.915363978
    486.735183663
    486.560696037
    486.391438605
    486.226087852
    486.061319939
    485.889292562
    485.692374105
    485.43269878
    485.032481241
    484.338584123
    483.061275733
    480.669783165
    498.500544749
    498.487931518
    498.461117528
    498.421044484
    498.367503412
    498.29998965
    498.217956437
    498.120963213
    498.008771337
    497.881400202
    497.739153501
    497.582619671
    497.412654698
    497.230348888
    497.036986489
    496.833982197
    496.622435153
    496.4041917
    496.180973019
    495.954322747
    495.725708878
    495.496501865
    495.267954677
    495.041190211
    494.817194606
    494.596817533
    494.380773035
    494.169647765
    493.963907877
    493.763908112
    493.569891304
    493.38197239
    493.200065325
    493.023681774
    492.851419923
    492.679766783
    492.500433756
    492.294776841
    492.022673471
    491.601448922
    490.867781588
    489.51168796
    486.965902384
    505.692837935
    505.680101426
    505.653004261
    505.612456573
    505.55819429
    505.489645346
    505.406189243
    505.307308634
    505.192689909
    505.062282949
    504.916331856
    504.755378514
    504.580248388
    504.392019541
    504.191982751
    503.981605721
    503.762593969
    503.536489468
    503.304887874
    503.069403521
    502.831592118
    502.592916743
    502.354724306
    502.118231057
    501.884512021
    501.654497701
    501.428976271
    501.208597571
    500.993881746
    500.785225922
    500.5829054
    500.387055012
    500.197591039
    500.013996058
    499.834781395
    499.656230163
    499.469609584
    499.255329961
    498.971292171
    498.53072227
    497.761809144
    496.337081287
    493.655283258
    513.242187036
    513.229379669
    513.202110042
    513.161250153
    513.106479487
    513.037156041
    512.952583291
    512.852163014
    512.735500848
    512.602469779
    512.453244155
    512.288308132
    512.108444614
    511.914705761
    511.708374937
    511.490912742
    511.263878582
    511.028985716
    510.787969635
    510.542536884
    510.294339803
    510.044946061
    509.795810841
    509.548258167
    509.303467523
    509.062468361
    508.82613781
    508.595204822
    508.370256366
    508.151744438
    507.939986479
    507.735146757
    507.537151017
    507.345450372
    507.158454747
    506.972214437
    506.777490538
    506.553642665
    506.25648019
    505.79522335
    504.990609329
    503.501502186
    500.69980769
    521.114878807
    521.102033387
    521.074659292
    521.033585906
    520.978434841
    520.908493018
    520.822984995
    520.72122763
    520.602740054
    520.467310851
    520.315036129
    520.146331803
    519.961925703
    519.762832481
    519.550317802
    519.325855056
    519.091084698
    518.847727413
    518.597558769
    518.34236104
    518.083881045
    517.823791814
    517.563661973
    517.304931457
    517.048895566
    516.796694421
    516.549309098
    516.307561668
    516.072120445
    515.843504506
    515.62208648
    515.408073313
    515.201419209
    515.001547124
    514.806762492
    514.612889886
    514.410208492
    514.177069215
    513.867254316
    513.3860598
    512.546886929
    510.99533019
    508.079859215
    529.28822249
    529.275382691
    529.247991833
    529.206839619
    529.151489458
    529.081157242
    528.994986841
    528.89220378
    528.772235618
    528.634781963
    528.479851825
    528.30778087
    528.119227877
    527.915154571
    527.696791414
    527.465593901
    527.223193375
    526.971355911
    526.711919605
    526.446738992
    526.177651468
    525.90643629
    525.634779517
    525.364245885
    525.096258123
    524.832082215
    524.57281967
    524.319404583
    524.072604104
    523.833022145
    523.601100641
    523.377109861
    523.161078066
    522.952402117
    522.749251095
    522.547217723
    522.336097285
    522.093256149
    521.770551047
    521.269657829
    520.397402591
    518.787704854
    515.768631399
    537.740798882
    537.728005838
    537.70069082
    537.659591279
    537.6042038
    537.533683098
    537.447085841
    537.343557042
    537.222429526
    537.083300711
    536.926081955
    536.751018208
    536.558687487
    536.349983456
    536.126085111
    535.88841833
    535.638611428
    535.378445649
    535.10979589
    534.834570794
    534.554687461
    534.272026526
    533.988391851
    533.705477598
    533.4248433
    533.147894184
    532.875869817
    532.60983562
    532.350679996
    532.099111425
    531.855654556
    531.620653115
    531.394341133
    531.176099259
    530.963856985
    530.752988564
    530.53282273
    530.279752968
    529.943739108
    529.422956291
    528.518095242
    526.85275594
    523.737987834
    546.41027222
    546.397651136
    546.370685563
    546.330054229
    546.275203061
    546.205214749
    546.119079074
    546.015854356
    545.894781602
    545.755361575
    545.597404814
    545.421053328
    545.226786118
    545.015405288
    544.788011888
    544.545968779
    544.290862895
    544.024465942
    543.74866479
    543.465383054
    543.176586804
    542.884232983
    542.590223128
    542.296367522
    542.004355601
    541.715733429
    541.431883724
    541.154016193
    540.883157021
    540.620139793
    540.365577999
    540.119794994
    539.882697867
    539.653738354
    539.431170421
    539.21026992
    538.979944326
    538.715668063
    538.365570869
    537.824385568
    536.886753198
    535.166472363
    531.960195081
    555.253969881
    555.241586938
    555.215101905
    555.175135754
    555.1210839
    555.05197329
    554.966724323
    554.864315221
    554.743896752
    554.604869888
    554.446937652
    554.270130258
    554.074815363
    553.86168745
    553.631747886
    553.386273786
    553.126786585
    552.855027997
    552.572876757
    552.28222472
    551.985057919
    551.683385331
    551.379188002
    551.074379956
    550.770774811
    550.470059077
    550.17376894
    549.88327349
    549.599760355
    549.32422288
    549.057432592
    548.799850289
    548.551334051
    548.311370971
    548.078299594
    547.847240365
    547.606783695
    547.331800404
    546.969244618
    546.411530758
    545.448767999
    543.686214223
    540.40524737
    564.27486472
    564.262721396
    564.236727422
    564.197444931
    564.14421926
    564.076020378
    563.991703333
    563.890168481
    563.77047717
    563.631928751
    563.47411589
    563.296952097
    563.100684585
    562.885888479
    562.653449981
    562.404540253
    562.140592872
    561.863314892
    561.574579017
    561.276178553
    560.970091957
    560.658357467
    560.343014674
    560.026065922
    559.709439034
    559.394958972
    559.084320099
    558.779064382
    558.480560312
    558.189985183
    557.908295692
    557.636183746
    557.373945867
    557.121062848
    556.875486962
    556.632090724
    556.379113423
    556.090871336
    555.713444165
    555.137803799
    554.15148634
    552.354791869
    549.019078485
    573.454220508
    573.442397949
    573.417066517
    573.378727644
    573.326684101
    573.259858467
    573.177049878
    573.077088886
    572.958954519
    572.821849177
    572.665255813
    572.488967482
    572.293102589
    572.078102816
    571.844718642
    571.593988822
    571.327223264
    571.046090983
    570.752482279
    570.447959584
    570.134449886
    569.813977437
    569.488597468
    569.160359577
    568.831272128
    568.503271015
    568.178191266
    567.857741133
    567.543473718
    567.236759725
    566.938740138
    566.650242406
    566.371617354
    566.102399447
    565.840520455
    565.580604659
    565.310396072
    565.003447059
    564.604765362
    564.003901681
    562.986587756
    561.150952057
    557.76596227
    582.785511359
    582.774056335
    582.749489716
    582.71225276
    582.661610908
    582.596447229
    582.515513638
    582.417580331
    582.301551578
    582.166539272
    582.01192038
    581.837368048
    581.64286844
    581.428721212
    581.195529251
    580.944177248
    580.675813087
    580.39208714
    580.095018773
    579.785698001
    579.465976195
    579.13781578
    578.803236425
    578.464284393
    578.123000302
    577.781388973
    577.441390558
    577.104854163
    576.773506608
    576.448917316
    576.132441268
    575.825112573
    575.527436372
    575.23896005
    574.95742204
    574.67700265
    574.384732653
    574.053220694
    573.626428908
    572.992948479
    571.937907136
    570.059496813
    566.627595588
    592.266255223
    592.255314503
    592.231829162
    592.196177558
    592.14760188
    592.084964806
    592.006993505
    591.912420147
    591.800094983
    591.669057226
    591.518592649
    591.348262739
    591.157924684
    590.947732793
    590.718131339
    590.469834349
    590.203776026
    589.920894536
    589.622303408
    589.310051678
    588.985930627
    588.651784195
    588.309533516
    587.961155807
    587.608657854
    587.254047722
    586.899309649
    586.546379835
    586.197115145
    585.853253036
    585.516339639
    585.187595329
    584.867646856
    584.556004445
    584.250066678
    583.943233354
    583.621252939
    583.255072187
    582.786951209
    582.104368594
    580.993035349
    579.055687359
    575.567931771
    601.889254016
    601.878885129
    601.856606543
    601.822734784
    601.776498023
    601.716751033
    601.642209451
    601.55158266
    601.443682113
    601.317489227
    601.172210466
    601.007307959
    600.822517449
    600.617852965
    600.393601125
    600.15030882
    599.888759149
    599.60974649
    599.314139338
    599.003806043
    598.680283629
    598.345213624
    598.000337811
    597.647477344
    597.288510078
    596.925347337
    596.559912603
    596.194127412
    595.829883545
    595.469002472
    595.113157938
    594.763710376
    594.421364988
    594.085498814
    593.752925533
    593.41573076
    593.057459428
    592.646158202
    592.121150545
    591.367998964
    590.172593122
    588.140569951
    584.561627661
    611.782171957
    611.772412199
    611.751422233
    611.719459621
    611.675746301
    611.619139679
    611.548357317
    611.462099756
    611.359154945
    611.238462154
    611.099164609
    610.940639211
    610.762514066
    610.56467395
    610.34725613
    610.11063875
    609.855434535
    609.58253443
    609.293022652
    608.987881794
    608.668370697
    608.335888224
    607.991938665
    607.638116618
    607.276090648
    606.907574674
    606.534324561
    606.158128703
    605.780793382
    605.404103883
    605.029748587
    604.659130463
    604.292939974
    603.930271109
    603.566976683
    603.192870905
    602.787335955
    602.312417191
    601.700798483
    600.833464998
    599.497322962
    597.307208137
    593.575147882
    622.226591504
    622.217556061
    622.198103943
    622.16843358
    622.127773755
    622.075005021
    622.008868281
    621.92808038
    621.831430893
    621.717841913
    621.586417482
    621.436471588
    621.267544396
    621.07940825
    620.872062825
    620.645724391
    620.400806178
    620.137880997
    619.857682259
    619.561152109
    619.249322249
    618.923325849
    618.584391679
    618.233836916
    617.873057449
    617.50348359
    617.126589797
    616.743907477
    616.357014234
    615.967504964
    615.57692436
    615.186570301
    614.796994042
    614.406871231
    614.010748959
    613.595009095
    613.131708408
    612.570695596
    611.828284453
    610.769496157
    609.174978414
    606.675006511
    602.622184191
    633.758452792
    633.750268891
    633.732629764
    633.705674915
    633.668654422
    633.620492664
    633.559979459
    633.485875782
    633.397000861
    633.292289075
    633.170833229
    633.031912064
    632.875004619
    632.699794322
    632.506165905
    632.294193993
    632.064130914
    631.816391684
    631.551526449
    631.270183057
    630.973121386
    630.661191225
    630.33532047
    629.996516159
    629.645869236
    629.284451346
    628.913351201
    628.533724253
    628.146776185
    627.753741362
    627.355830527
    626.954049911
    626.548673792
    626.137919877
    625.715108393
    625.262736872
    624.741949492
    624.081475413
    623.16295901
    621.806550573
    619.753226436
    616.627741714
    611.845099892
    647.435595713
    647.428518861
    647.41324461
    647.389851055
    647.357636428
    647.315607985
    647.262649286
    647.197612675
    647.119396754
    647.026995349
    646.919536552
    646.796306032
    646.656760367
    646.500530239
    646.327417217
    646.137381725
    645.930530286
    645.707094835
    645.467419717
    645.211947725
    644.941195856
    644.655742445
    644.356217899
    644.043318482
    643.717869492
    643.38054978
    643.03199145
    642.672915803
    642.304074533
    641.926228165
    641.540112018
    641.146298531
    640.744711645
    640.333184987
    639.903838703
    639.435345676
    638.8784411
    638.132576722
    637.017896564
    635.251770227
    632.443672009
    628.113788437
    621.707732687
    665.409877316
    665.404203391
    665.39193374
    665.37308523
    665.347037484
    665.312928405
    665.269789947
    665.216625095
    665.152470021
    665.076436545
    664.987742339
    664.885732361
    664.76988891
    664.639833499
    664.495324635
    664.336247614
    664.16260263
    663.974490126
    663.772093781
    663.555662832
    663.325500625
    663.08194794
    662.825372369
    662.55618567
    662.275124816
    661.982491533
    661.678423338
    661.363262566
    661.037355891
    660.701028559
    660.354569676
    659.99816939
    659.631620274
    659.253220224
    658.856301616
    658.420627799
    657.893511435
    657.149946702
    655.931806373
    653.773934127
    649.95517981
    643.546738458
    633.644517037
    692.132908035
    692.129081038
    692.120781315
    692.107972598
    692.090177089
    692.066746684
    692.036955209
    692.000054645
    691.955317639
    691.902067943
    691.839702918
    691.767707644
    691.685663353
    691.593247902
    691.49023433
    691.376484355
    691.251937082
    691.116599749
    690.9705351
    690.813849989
    690.646683016
    690.469191952
    690.281536331
    690.083828824
    689.876052062
    689.658414073
    689.431197714
    689.194570376
    688.948653014
    688.693547229
    688.429346842
    688.15614739
    687.874004251
    687.582579197
    687.27946019
    686.95395773
    686.56859138
    686.01228583
    684.99756161
    682.870887848
    678.332829304
    669.170907277
    652.382140783
    736.257082141
    736.255730778
    736.252781289
    736.248182059
    736.24171788
    736.233106776
    736.222035386
    736.208181192
    736.191228704
    736.170881505
    736.146871963
    736.118966276
    736.086969377
    736.050723673
    736.010109591
    735.965042748
    735.915469666
    735.861363097
    735.802718771
    735.739547922
    735.671875146
    735.59973208
    735.523154432
    735.442152769
    735.356467533
    735.266206189
    735.171606977
    735.07272518
    734.969612376
    734.862349226
    734.751076185
    734.636050449
    734.517765942
    734.397198453
    734.276215858
    734.157634121
    734.041771462
    733.907375306
    733.639494679
    732.803675586
    730.022056721
    721.389522287
    696.627748658
)
;

boundaryField {
  top
  {
    type            fixedValue;
    value           uniform 773;
  }
  bottom
  {
    type            zeroGradient;
  }
  wedge1
  {
    type            wedge;
  }
  wedge2
  {
    type            wedge;
  }
  porousMat_to_tank
  {
    type            compressible::turbulentTemperatureCoupledBaffleMixed;
    refValue        nonuniform List<scalar>
    30
    (
        446.301634013
        447.06532739
        448.553668089
        450.730875971
        453.558537164
        457.000040924
        461.019900919
        465.584192106
        470.660271065
        476.216551136
        482.222131831
        488.646510116
        495.459962993
        502.633415875
        510.137627334
        517.942869481
        526.018296252
        534.331449104
        542.848370123
        551.533475604
        560.348119454
        569.248345406
        578.181829129
        587.08262537
        595.862961358
        604.396665139
        612.48828746
        619.818352064
        625.84581786
        629.637303452
    )
    ;
    refGradient     uniform 0;
    valueFraction   uniform 0.512566235779;
    Tnbr            Ta;
    thicknessLayers 0 ( );
    kappaLayers     0 ( );
    kappaMethod     lookup;
    kappa           k_abl_sym;
    alphaAni        Anialpha;
    value           nonuniform List<scalar>
    30
    (
        446.654103456
        447.735322976
        449.435820334
        451.840596768
        454.873384539
        458.510322875
        462.712115686
        467.446794441
        472.681900212
        478.387206787
        484.534405768
        491.087955263
        498.014040218
        505.288196254
        512.882368842
        520.767605834
        528.914578365
        537.292023456
        545.856181728
        554.57140004
        563.408948143
        572.328725176
        581.291558342
        590.247300058
        599.157634787
        608.027283728
        616.982156351
        626.557691702
        638.780517631
        662.290708326
    )
    ;
  }
}


// ************************************************************************* //
