/*--------------------------------*- C++ -*----------------------------------*\
  =========                 |
  \\      /  F ield         | OpenFOAM: The Open Source CFD Toolbox
   \\    /   O peration     | Website:  https://openfoam.org
    \\  /    A nd           | Version:  7
     \\/     M anipulation  |
\*---------------------------------------------------------------------------*/
FoamFile {
  version     2.0;
  format      ascii;
  class       volVectorField;
  location    "3600/porousMat";
  object      U;
}
// * * * * * * * * * * * * * * * * * * * * * * * * * * * * * * * * * * * * * //

dimensions      [0 1 -1 0 0 0 0];

internalField   nonuniform List<vector>
1290
(
    (-2.1628724148e-08 0 -0.0509262908688)
    (-5.64063291849e-08 0 -0.0509273327468)
    (-1.09876520433e-07 0 -0.0509295782646)
    (-1.88633252881e-07 0 -0.0509330031738)
    (-2.9855527314e-07 -4.58597042158e-11 -0.0509376846015)
    (-4.43564239641e-07 0 -0.0509437207197)
    (-6.25368337666e-07 0 -0.0509512046177)
    (-8.43820638321e-07 0 -0.0509602072699)
    (-1.09702174762e-06 0 -0.0509707680028)
    (-1.38137278562e-06 0 -0.0509828885412)
    (-1.69209031928e-06 0 -0.0509965323685)
    (-2.02326131285e-06 0 -0.0510116255284)
    (-2.36853974745e-06 0 -0.0510280610993)
    (-2.72130556217e-06 0 -0.0510457049254)
    (-3.07536756583e-06 0 -0.0510644020457)
    (-3.42482810772e-06 0 -0.0510839838588)
    (-3.76479302862e-06 0 -0.0511042747643)
    (-4.0915191857e-06 0 -0.051125099219)
    (-4.40212202322e-06 0 -0.0511462862854)
    (-4.69464671263e-06 0 -0.0511676739178)
    (-4.96842988246e-06 0 -0.05118911212)
    (-5.2238604764e-06 -1.73806488768e-11 -0.0512104656194)
    (-5.46201273342e-06 0 -0.0512316147602)
    (-5.68508632964e-06 0 -0.0512524563669)
    (-5.89600764425e-06 0 -0.0512729037773)
    (-6.09816989712e-06 1.96628617594e-11 -0.0512928862688)
    (-6.29629471418e-06 2.03529466463e-11 -0.051312348177)
    (-6.49574064213e-06 0 -0.0513312484382)
    (-6.70371171579e-06 0 -0.0513495594408)
    (-6.9287475339e-06 0 -0.0513672665519)
    (-7.18254829935e-06 0 -0.0513843677818)
    (-7.48073303052e-06 0 -0.0514008746191)
    (-7.84521833043e-06 0 -0.0514168144188)
    (-8.30591346504e-06 0 -0.0514322379552)
    (-8.90255090102e-06 0 -0.0514472344334)
    (-9.68595086987e-06 0 -0.0514619637668)
    (-1.07084221354e-05 0 -0.0514767177207)
    (-1.20000397918e-05 0 -0.0514920241418)
    (-1.35041435443e-05 0 -0.0515088052742)
    (-1.49398066744e-05 0 -0.051528579971)
    (-1.55429272959e-05 0 -0.051553647775)
    (-1.36203534202e-05 0 -0.051587107098)
    (-5.86388806546e-06 0 -0.0516324274205)
    (-6.31737302172e-08 0 -0.0510768872002)
    (-1.65387721012e-07 -1.08852469609e-10 -0.0510779175181)
    (-3.22826440123e-07 7.04918940139e-11 -0.0510801386153)
    (-5.55602352099e-07 -5.43881701433e-11 -0.0510835279834)
    (-8.81208493976e-07 -9.13980403831e-11 -0.0510881634274)
    (-1.3109747729e-06 -4.03904258952e-11 -0.0510941437427)
    (-1.85021650929e-06 0 -0.0511015628482)
    (-2.49847988681e-06 0 -0.0511104928282)
    (-3.24994548141e-06 0 -0.0511209740812)
    (-4.09392775029e-06 0 -0.0511330101421)
    (-5.01604399998e-06 0 -0.0511465655586)
    (-5.99870357451e-06 0 -0.0511615682242)
    (-7.02287024834e-06 -1.51820772264e-11 -0.0511779125792)
    (-8.06873088832e-06 0 -0.05119546543)
    (-9.11737078351e-06 0 -0.0512140725865)
    (-1.01510934005e-05 0 -0.0512335655417)
    (-1.11553354481e-05 0 -0.0512537685398)
    (-1.21180724433e-05 0 -0.0512745054104)
    (-1.30303186858e-05 0 -0.0512956041198)
    (-1.38861145876e-05 0 -0.0513169011529)
    (-1.46827188875e-05 0 -0.0513382448293)
    (-1.5420198628e-05 0 -0.0513594975038)
    (-1.6101627499e-05 0 -0.0513805371183)
    (-1.67318465694e-05 0 -0.0514012577119)
    (-1.73181960235e-05 0 -0.0514215691541)
    (-1.78698450244e-05 0 -0.0514413969709)
    (-1.83976688923e-05 -2.02825559752e-11 -0.0514606812385)
    (-1.89143257234e-05 -1.05099570868e-11 -0.0514793749759)
    (-1.94350216518e-05 0 -0.0514974433695)
    (-1.99773802765e-05 0 -0.051514861831)
    (-2.05622739409e-05 0 -0.0515316154025)
    (-2.1215397037e-05 0 -0.0515476970472)
    (-2.19668889847e-05 0 -0.0515631099247)
    (-2.28534378027e-05 0 -0.0515778720074)
    (-2.39139971105e-05 0 -0.0515920338535)
    (-2.51880044804e-05 0 -0.0516057192366)
    (-2.6695108258e-05 0 -0.051619214728)
    (-2.83963173308e-05 0 -0.051633146399)
    (-3.00992105639e-05 0 -0.051648798917)
    (-3.1267385944e-05 0 -0.0516686376572)
    (-3.06372260441e-05 0 -0.0516970704566)
    (-2.55321028431e-05 0 -0.0517414023093)
    (-1.06972634516e-05 0 -0.0518127681543)
    (-9.74939705019e-08 0 -0.0513788660158)
    (-2.57201308686e-07 0 -0.0513798745921)
    (-5.0696105039e-07 0 -0.0513820502672)
    (-8.80537042213e-07 0 -0.0513853735445)
    (-1.40667842083e-06 -4.55262439208e-11 -0.0513899233427)
    (-2.10406688251e-06 4.02377447789e-11 -0.0513958002478)
    (-2.98142772875e-06 0 -0.0514030995181)
    (-4.03814420777e-06 0 -0.0514118954838)
    (-5.26466010113e-06 0 -0.0514222310391)
    (-6.64349841256e-06 0 -0.0514341123726)
    (-8.15086782932e-06 0 -0.0514475073963)
    (-9.75804187706e-06 0 -0.051462346685)
    (-1.14329100051e-05 0 -0.0514785274539)
    (-1.31428806561e-05 0 -0.051495918859)
    (-1.48556793698e-05 1.51681760283e-11 -0.0515143677168)
    (-1.65419197509e-05 0 -0.0515337062069)
    (-1.81764023328e-05 0 -0.0515537579672)
    (-1.97385764231e-05 0 -0.0515743456622)
    (-2.1212100363e-05 0 -0.0515952954822)
    (-2.25861169e-05 0 -0.0516164411906)
    (-2.38542794954e-05 0 -0.05163762772)
    (-2.50153854917e-05 0 -0.0516587134897)
    (-2.6071798112e-05 1.7752129487e-11 -0.0516795720687)
    (-2.70296016352e-05 0 -0.0517000927079)
    (-2.78977740558e-05 9.44248317718e-12 -0.0517201803418)
    (-2.86874055763e-05 0 -0.0517397546661)
    (-2.94111195829e-05 0 -0.051758749373)
    (-3.00832334444e-05 -1.04711036632e-11 -0.0517771107587)
    (-3.07185250134e-05 0 -0.0517947957212)
    (-3.13323727658e-05 0 -0.0518117705307)
    (-3.19403336218e-05 0 -0.051828008945)
    (-3.25563109734e-05 0 -0.0518434919544)
    (-3.31926741073e-05 0 -0.0518582086822)
    (-3.38558911875e-05 1.32416119904e-11 -0.0518721630799)
    (-3.45432035198e-05 0 -0.0518853939874)
    (-3.52324385372e-05 0 -0.0518980213402)
    (-3.58660371614e-05 0 -0.0519103483677)
    (-3.63175208405e-05 0 -0.051923068621)
    (-3.63279652819e-05 0 -0.0519376568022)
    (-3.53738393337e-05 0 -0.0519570591157)
    (-3.2413382031e-05 0 -0.0519868282241)
    (-2.53823607151e-05 9.41632692377e-12 -0.0520368537229)
    (-1.02474838128e-05 0 -0.0521237875893)
    (-1.18357784041e-07 0 -0.0517299701157)
    (-3.17484376284e-07 1.07886968408e-10 -0.051730941115)
    (-6.3853768539e-07 6.98666687153e-11 -0.0517330381428)
    (-1.12939742872e-06 -5.39058079878e-11 -0.0517362467565)
    (-1.82970093381e-06 0 -0.0517406484421)
    (-2.76526574086e-06 -4.00322940658e-11 -0.0517463459962)
    (-3.94843381463e-06 0 -0.0517534376041)
    (-5.37862969226e-06 0 -0.0517620012319)
    (-7.04308131211e-06 0 -0.0517720839577)
    (-8.91830224765e-06 0 -0.0517836972382)
    (-1.09714360185e-05 -3.07729214269e-11 -0.0517968141565)
    (-1.31629700174e-05 0 -0.0518113707722)
    (-1.54487453974e-05 0 -0.0518272694581)
    (-1.77827443973e-05 0 -0.0518443835165)
    (-2.01196794345e-05 0 -0.0518625633642)
    (-2.2417687908e-05 0 -0.0518816427695)
    (-2.46403673306e-05 -1.54150689941e-11 -0.0519014455463)
    (-2.67578325599e-05 0 -0.051921794318)
    (-2.87457210183e-05 1.5967345677e-11 -0.0519425137855)
    (-3.05862664198e-05 0 -0.0519634350429)
    (-3.22684157833e-05 0 -0.05198439943)
    (-3.37878222351e-05 0 -0.0520052611908)
    (-3.51447479278e-05 0 -0.052025889426)
    (-3.63445389812e-05 1.82030776306e-11 -0.0520461686059)
    (-3.73951456491e-05 1.8790028573e-11 -0.0520659988199)
    (-3.83076831162e-05 0 -0.052085295248)
    (-3.9094342943e-05 1.00530789227e-11 -0.0521039872587)
    (-3.97672093925e-05 0 -0.0521220167698)
    (-4.03385836297e-05 0 -0.0521393374077)
    (-4.08194101599e-05 0 -0.0521559127443)
    (-4.12187786095e-05 0 -0.0521717153627)
    (-4.154249118e-05 0 -0.0521867272485)
    (-4.17934566795e-05 -1.26441898376e-11 -0.0522009423298)
    (-4.19683000245e-05 0 -0.0522143763952)
    (-4.20566239046e-05 0 -0.0522270915689)
    (-4.20346536253e-05 0 -0.0522392539644)
    (-4.18508275058e-05 0 -0.0522512570141)
    (-4.1396633457e-05 0 -0.0522639713724)
    (-4.04400734204e-05 0 -0.0522792191649)
    (-3.84922433103e-05 0 -0.0523006250178)
    (-3.45416716505e-05 0 -0.052335057045)
    (-2.65608866126e-05 0 -0.0523949442429)
    (-1.06092390277e-05 -9.83269231909e-12 -0.0525018334178)
    (-1.21368987931e-07 0 -0.0521608218642)
    (-3.35600017791e-07 1.07246150928e-10 -0.0521617447201)
    (-6.99882136126e-07 0 -0.052163740869)
    (-1.27690275446e-06 -5.35856606299e-11 -0.0521668023068)
    (-2.11674202502e-06 0 -0.0521710140048)
    (-3.25215682253e-06 0 -0.0521764817041)
    (-4.69927676888e-06 0 -0.0521833075644)
    (-6.45807732821e-06 0 -0.0521915740045)
    (-8.51345294025e-06 0 -0.0522013343753)
    (-1.08364104424e-05 1.56626096439e-11 -0.0522126065507)
    (-1.33862636828e-05 -1.52952636238e-11 -0.0522253710041)
    (-1.61134519279e-05 0 -0.0522395712689)
    (-1.89620461559e-05 2.9917532379e-11 -0.0522551167502)
    (-2.18732489251e-05 0 -0.0522718870045)
    (-2.47884317402e-05 0 -0.0522897376319)
    (-2.76525178834e-05 0 -0.0523085054249)
    (-3.04176690973e-05 -1.53241453906e-11 -0.0523280148014)
    (-3.30435614586e-05 0 -0.0523480892413)
    (-3.54964598638e-05 0 -0.0523685524762)
    (-3.77507638351e-05 0 -0.052389232865)
    (-3.97889573423e-05 0 -0.052409968202)
    (-4.16018819508e-05 0 -0.0524306085047)
    (-4.3186875468e-05 0 -0.0524510182811)
    (-4.45464831294e-05 0 -0.0524710774685)
    (-4.56877912854e-05 0 -0.0524906822684)
    (-4.66204456422e-05 0 -0.0525097444506)
    (-4.73554987198e-05 9.99456008078e-12 -0.0525281906556)
    (-4.79043240335e-05 0 -0.0525459617753)
    (-4.82774503417e-05 0 -0.0525630115652)
    (-4.84839821128e-05 0 -0.0525793054487)
    (-4.85306779036e-05 0 -0.0525948201386)
    (-4.8421141081e-05 0 -0.0526095437433)
    (-4.81559637643e-05 0 -0.0526234793866)
    (-4.77301850697e-05 0 -0.052636655359)
    (-4.71332462481e-05 0 -0.0526491516819)
    (-4.63419786672e-05 0 -0.0526611620338)
    (-4.53098673108e-05 0 -0.052673130759)
    (-4.39397818388e-05 0 -0.052686033669)
    (-4.20263696247e-05 0 -0.0527019264363)
    (-3.91366350678e-05 0 -0.0527249541821)
    (-3.43730363567e-05 0 -0.0527631150257)
    (-2.59229727423e-05 0 -0.0528311985251)
    (-1.02355224619e-05 -9.7824016189e-12 -0.0529555127786)
    (-1.01814894036e-07 0 -0.0526541041612)
    (-3.00843785184e-07 0 -0.0526549674684)
    (-6.73123792211e-07 0 -0.0526568388679)
    (-1.2973427148e-06 -5.32189946051e-11 -0.0526597182663)
    (-2.23338708894e-06 -4.47167345512e-11 -0.0526636943729)
    (-3.52073939513e-06 0 -0.0526688768039)
    (-5.17967228177e-06 3.61210701232e-11 -0.052675371876)
    (-7.21134593417e-06 3.3807436408e-11 -0.0526832681076)
    (-9.59924515653e-06 0 -0.0526926256778)
    (-1.23102326708e-05 0 -0.0527034712388)
    (-1.52969478247e-05 -3.03816117329e-11 -0.0527157944671)
    (-1.85007713002e-05 1.496742828e-11 -0.0527295484867)
    (-2.18551676975e-05 0 -0.0527446520118)
    (-2.52890837698e-05 0 -0.0527609934395)
    (-2.87307157774e-05 1.4899696388e-11 -0.0527784355842)
    (-3.211108573e-05 1.5029186564e-11 -0.0527968211281)
    (-3.53704148324e-05 0 -0.0528159756651)
    (-3.84577316384e-05 0 -0.0528357253297)
    (-4.13282686253e-05 0 -0.0528558940825)
    (-4.39470335202e-05 0 -0.0528763083541)
    (-4.62894741405e-05 0 -0.0528968025242)
    (-4.83401846181e-05 0 -0.0529172229592)
    (-5.00925032333e-05 0 -0.0529374300237)
    (-5.1546543261e-05 0 -0.0529572999108)
    (-5.27076833555e-05 0 -0.0529767254023)
    (-5.3585006694e-05 9.59054034643e-12 -0.0529956156541)
    (-5.41899384343e-05 0 -0.0530138963507)
    (-5.45351636073e-05 0 -0.0530315084251)
    (-5.46326825925e-05 0 -0.053048407247)
    (-5.44937187586e-05 0 -0.0530645617261)
    (-5.41287850403e-05 0 -0.0530799537785)
    (-5.35455528703e-05 0 -0.0530945783989)
    (-5.27497149686e-05 0 -0.0531084475906)
    (-5.17446472575e-05 0 -0.0531216013516)
    (-5.05277453346e-05 0 -0.0531341367344)
    (-4.9087477827e-05 0 -0.053146276541)
    (-4.73903211457e-05 0 -0.0531585202781)
    (-4.53547166279e-05 -1.54457660227e-11 -0.0531719591754)
    (-4.27944653922e-05 1.61460331172e-11 -0.0531888937661)
    (-3.93077355502e-05 -8.44445858624e-12 -0.0532139888748)
    (-3.40569116517e-05 8.83989503274e-12 -0.0532563250529)
    (-2.53591788046e-05 0 -0.0533329009565)
    (-9.93391622047e-06 9.72357582816e-12 -0.0534744431999)
    (-5.62417577897e-08 0 -0.0532105300107)
    (-2.04993384089e-07 0 -0.0532113252502)
    (-5.44578632151e-07 -6.84509483268e-11 -0.0532130536281)
    (-1.17087047056e-06 0 -0.0532157238632)
    (-2.15287850625e-06 0 -0.0532194289442)
    (-3.53666697083e-06 0 -0.0532242821538)
    (-5.34682913769e-06 0 -0.0532303948498)
    (-7.58677097771e-06 0 -0.0532378619514)
    (-1.02396848134e-05 0 -0.0532467520448)
    (-1.32697704289e-05 0 -0.0532571013594)
    (-1.66244831351e-05 0 -0.0532689108001)
    (-2.02379049696e-05 0 -0.0532821449191)
    (-2.40338777852e-05 0 -0.0532967340419)
    (-2.79305790129e-05 0 -0.0533125774972)
    (-3.18437117937e-05 0 -0.0533295485096)
    (-3.56900978559e-05 0 -0.0533474985623)
    (-3.93972505583e-05 0 -0.0533662561936)
    (-4.29026651455e-05 0 -0.0533856521121)
    (-4.61497967218e-05 0 -0.0534055112642)
    (-4.90928706699e-05 0 -0.0534256586518)
    (-5.16991026081e-05 -1.63857210567e-11 -0.0534459259148)
    (-5.39468114506e-05 0 -0.0534661560846)
    (-5.5824527334e-05 0 -0.0534862057559)
    (-5.73295128954e-05 0 -0.0535059473771)
    (-5.84662023286e-05 0 -0.0535252702306)
    (-5.92442549404e-05 1.90375626859e-11 -0.0535440810167)
    (-5.96772420951e-05 1.97066236787e-11 -0.0535623038544)
    (-5.97807306273e-05 0 -0.0535798791311)
    (-5.95717461298e-05 0 -0.0535967632914)
    (-5.9067600778e-05 0 -0.0536129273584)
    (-5.82849308504e-05 0 -0.0536283562599)
    (-5.72396986119e-05 0 -0.0536430493061)
    (-5.59456868366e-05 0 -0.0536570236204)
    (-5.44154169952e-05 0 -0.0536703259942)
    (-5.26558617522e-05 0 -0.053683064086)
    (-5.06642908427e-05 0 -0.0536954810912)
    (-4.84167594835e-05 0 -0.0537081211964)
    (-4.58416007305e-05 -1.53321575903e-11 -0.0537221759964)
    (-4.27683429314e-05 0 -0.0537401713776)
    (-3.88237368046e-05 0 -0.0537672597758)
    (-3.32350799873e-05 0 -0.053813547204)
    (-2.44593928953e-05 0 -0.0538981246609)
    (-9.51100962016e-06 0 -0.0540558955278)
    (1.80407810729e-08 0 -0.0538247195398)
    (-4.12658026906e-08 -1.04818676464e-10 -0.0538254393374)
    (-3.02824283945e-07 0 -0.0538270088942)
    (-8.80728801015e-07 0 -0.0538294466063)
    (-1.85232013804e-06 4.40058772387e-11 -0.0538328491795)
    (-3.26988204475e-06 0 -0.0538373337232)
    (-5.16295849675e-06 0 -0.0538430165397)
    (-7.53790234049e-06 0 -0.05384999938)
    (-1.03791592166e-05 0 -0.053858359678)
    (-1.36500836501e-05 0 -0.0538681445769)
    (-1.72947550246e-05 0 -0.0538793674263)
    (-2.12417481491e-05 0 -0.0538920062426)
    (-2.54074885506e-05 0 -0.0539060049571)
    (-2.97007873225e-05 0 -0.0539212761429)
    (-3.4027245657e-05 1.46639241905e-11 -0.0539377058206)
    (-3.82904115033e-05 0 -0.0539551587171)
    (-4.24034644154e-05 -1.49796066502e-11 -0.0539734733452)
    (-4.62900426897e-05 0 -0.0539924844886)
    (-4.98804821658e-05 0 -0.0540120172496)
    (-5.31186002877e-05 0 -0.054031895707)
    (-5.59628147909e-05 0 -0.0540519501969)
    (-5.83842387114e-05 0 -0.0540720208537)
    (-6.03663274771e-05 0 -0.0540919605121)
    (-6.19036233946e-05 0 -0.0541116377126)
    (-6.29994824868e-05 0 -0.0541309374565)
    (-6.36649540207e-05 -9.44073681556e-12 -0.0541497628343)
    (-6.39168637476e-05 -1.95452610271e-11 -0.054168034632)
    (-6.37757508594e-05 0 -0.0541856912067)
    (-6.3265377472e-05 0 -0.0542026875991)
    (-6.24102983854e-05 0 -0.0542189940814)
    (-6.12368353045e-05 0 -0.0542345957855)
    (-5.97699424062e-05 0 -0.0542494927581)
    (-5.80344382894e-05 0 -0.0542637039935)
    (-5.60520405622e-05 0 -0.0542772799356)
    (-5.38409679653e-05 0 -0.0542903367016)
    (-5.14079402488e-05 0 -0.054303136924)
    (-4.87370324915e-05 -1.45570062418e-11 -0.0543162706461)
    (-4.57660038598e-05 0 -0.054331033041)
    (-4.23332371977e-05 0 -0.0543501755196)
    (-3.80844959064e-05 1.663120887e-11 -0.0543793269809)
    (-3.22928068924e-05 0 -0.0544295712963)
    (-2.3533876683e-05 0 -0.0545219656218)
    (-9.09113482262e-06 0 -0.0546953108887)
    (1.23259083258e-07 0 -0.0544936872062)
    (1.95155402716e-07 -1.03875131186e-10 -0.0544943298419)
    (6.05376584683e-08 0 -0.0544957366615)
    (-4.14300435167e-07 0 -0.0544979350327)
    (-1.31389305869e-06 4.36098215947e-11 -0.0545010255285)
    (-2.6966177138e-06 0 -0.0545051284174)
    (-4.59711245392e-06 0 -0.0545103645851)
    (-7.02592431886e-06 0 -0.0545168428086)
    (-9.97014641256e-06 0 -0.0545246495565)
    (-1.33943666574e-05 1.51710180296e-11 -0.0545338435709)
    (-1.72416711554e-05 0 -0.0545444517287)
    (-2.14370970679e-05 0 -0.0545564668077)
    (-2.58920615723e-05 0 -0.054569847831)
    (-3.05082209565e-05 0 -0.0545845222041)
    (-3.51841529082e-05 0 -0.0546003891231)
    (-3.9819710465e-05 0 -0.0546173254443)
    (-4.43075178958e-05 -1.48456481326e-11 -0.0546351677677)
    (-4.85455881906e-05 0 -0.0546537661637)
    (-5.24542232711e-05 0 -0.0546729550924)
    (-5.59695075266e-05 0 -0.0546925614094)
    (-5.90408125053e-05 0 -0.054712415741)
    (-6.16313461471e-05 0 -0.0547323560814)
    (-6.37187636333e-05 0 -0.0547522320078)
    (-6.52937433513e-05 -1.75362629648e-11 -0.0547719068873)
    (-6.63585151666e-05 0 -0.0547912607102)
    (-6.69255127475e-05 0 -0.0548101907468)
    (-6.70148650218e-05 0 -0.0548286125531)
    (-6.66529408589e-05 0 -0.0548464595195)
    (-6.5870318931e-05 0 -0.0548636820553)
    (-6.47001769858e-05 0 -0.0548802465685)
    (-6.31780477224e-05 0 -0.0548961348464)
    (-6.13389248911e-05 0 -0.0549113439736)
    (-5.92181314884e-05 0 -0.0549258909265)
    (-5.68478362212e-05 0 -0.0549398263365)
    (-5.42559953081e-05 0 -0.0549532708612)
    (-5.14594076733e-05 0 -0.0549665036672)
    (-4.84530557571e-05 -1.4429890939e-11 -0.0549801577048)
    (-4.51842071216e-05 1.50758021205e-11 -0.0549956304218)
    (-4.15034557094e-05 0 -0.0550158987147)
    (-3.70719188443e-05 0 -0.0550470631509)
    (-3.11969110819e-05 0 -0.0551011561612)
    (-2.25493153332e-05 0 -0.0552010967414)
    (-8.66075156866e-06 0 -0.0553893219928)
    (2.58404109939e-07 0 -0.0552124803718)
    (5.02392985794e-07 -1.02878231918e-10 -0.0552130473678)
    (5.42774734519e-07 0 -0.0552142940743)
    (2.25246543038e-07 0 -0.0552162561439)
    (-5.41014650568e-07 0 -0.0552190368955)
    (-1.81968181449e-06 0 -0.0552227594552)
    (-3.65115691178e-06 0 -0.0552275483331)
    (-6.05104244476e-06 3.26547660716e-11 -0.0552335188763)
    (-9.01095394581e-06 0 -0.0552407663603)
    (-1.24987577213e-05 0 -0.0552493614392)
    (-1.6458801254e-05 0 -0.0552593448415)
    (-2.08157155725e-05 0 -0.0552707252517)
    (-2.54773691675e-05 0 -0.0552834782196)
    (-3.03402153623e-05 0 -0.0552975472401)
    (-3.52950982659e-05 0 -0.0553128453162)
    (-4.02366009556e-05 0 -0.0553292593178)
    (-4.50427426447e-05 0 -0.0553466382567)
    (-4.959286819e-05 0 -0.0553648420954)
    (-5.3797218434e-05 0 -0.0553837160092)
    (-5.75808079214e-05 0 -0.0554030934553)
    (-6.08816049794e-05 -1.59527877481e-11 -0.0554228070678)
    (-6.36536503327e-05 0 -0.0554426936604)
    (-6.58669762893e-05 0 -0.0554625987133)
    (-6.75070759522e-05 0 -0.0554823800027)
    (-6.85742038038e-05 0 -0.0555019104079)
    (-6.90805151143e-05 9.26885850649e-12 -0.0555210795374)
    (-6.90493437606e-05 1.91898655872e-11 -0.0555397947546)
    (-6.8511341957e-05 0 -0.0555579814012)
    (-6.75039013873e-05 0 -0.0555755820117)
    (-6.6067906151e-05 0 -0.0555925558107)
    (-6.42475426454e-05 0 -0.0556088776206)
    (-6.20869824324e-05 0 -0.0556245387543)
    (-5.96297880385e-05 0 -0.0556395513106)
    (-5.69183572804e-05 0 -0.055653963125)
    (-5.39881915286e-05 0 -0.055667897436)
    (-5.08649782932e-05 0 -0.0556816469431)
    (-4.75541108491e-05 0 -0.0556958852832)
    (-4.40180332494e-05 -7.46769041526e-12 -0.055712109437)
    (-4.01318324438e-05 0 -0.0557335210605)
    (-3.55944265478e-05 0 -0.0557666939053)
    (-2.97675736196e-05 0 -0.0558245996131)
    (-2.14004231238e-05 0 -0.0559319266281)
    (-8.19234333444e-06 0 -0.0561344726179)
    (4.20562876393e-07 0 -0.0559768052015)
    (8.73688138726e-07 -1.0183884006e-10 -0.0559772966098)
    (1.13304668605e-06 0 -0.0559783830344)
    (1.02315469947e-06 0 -0.0559801068547)
    (4.48014610912e-07 4.2754967834e-11 -0.0559825730644)
    (-6.60947248463e-07 0 -0.0559859062688)
    (-2.35001009281e-06 0 -0.0559902334162)
    (-4.6410686736e-06 0 -0.0559956755529)
    (-7.53159442613e-06 0 -0.0560023359552)
    (-1.09952298594e-05 2.97476856068e-11 -0.0560102961884)
    (-1.49805285592e-05 0 -0.0560196115638)
    (-1.94138071316e-05 0 -0.0560303072562)
    (-2.42027852425e-05 0 -0.0560423770165)
    (-2.92397480682e-05 0 -0.0560557826978)
    (-3.44063051323e-05 1.42485530201e-11 -0.056070455334)
    (-3.95772743669e-05 0 -0.0560862955542)
    (-4.46321562189e-05 -1.45560042972e-11 -0.0561032043058)
    (-4.94574737611e-05 0 -0.0561210320686)
    (-5.39460408426e-05 0 -0.0561396236184)
    (-5.80045306532e-05 0 -0.056158819967)
    (-6.15568040643e-05 0 -0.0561784567649)
    (-6.45447987963e-05 0 -0.0561983697769)
    (-6.69289624913e-05 0 -0.0562184004932)
    (-6.86881938257e-05 -1.71967612772e-11 -0.0562384002892)
    (-6.98178238515e-05 0 -0.0562582332132)
    (-7.03286235934e-05 0 -0.056277779078)
    (-7.02443540831e-05 0 -0.0562969343993)
    (-6.95990509287e-05 0 -0.0563156133434)
    (-6.84349104501e-05 0 -0.0563337476587)
    (-6.67994437279e-05 0 -0.0563512859408)
    (-6.47440180635e-05 0 -0.0563681936869)
    (-6.2320708078e-05 0 -0.0563844536903)
    (-5.95811329513e-05 0 -0.0564000714866)
    (-5.65732908737e-05 0 -0.0564150913727)
    (-5.33393776289e-05 0 -0.0564296381221)
    (-4.99095706359e-05 0 -0.0564440171818)
    (-4.62940591866e-05 -7.07718972478e-12 -0.0564589383872)
    (-4.24644618193e-05 7.39415519264e-12 -0.0564759879227)
    (-3.83190977453e-05 0 -0.0564985715485)
    (-3.36118226831e-05 0 -0.056533711599)
    (-2.78105337379e-05 0 -0.0565953263712)
    (-1.98276497346e-05 0 -0.0567098973146)
    (-7.55888646106e-06 0 -0.0569263907826)
    (6.08933880358e-07 0 -0.0567836759516)
    (1.30720320232e-06 -1.00765797551e-10 -0.0567840968511)
    (1.82905730584e-06 -6.52551612117e-11 -0.0567850335863)
    (1.9774274828e-06 -5.03479286013e-11 -0.0567865329798)
    (1.65221487913e-06 4.23044849308e-11 -0.0567886999387)
    (7.80889315412e-07 0 -0.0567916592528)
    (-6.8886867788e-07 0 -0.0567955386668)
    (-2.78618763813e-06 3.19844065067e-11 -0.0568004632854)
    (-5.51585791739e-06 0 -0.0568065432508)
    (-8.85966714608e-06 0 -0.056813869975)
    (-1.27732170713e-05 -1.43724119993e-11 -0.0568225123089)
    (-1.71882606044e-05 2.83228792723e-11 -0.0568325122749)
    (-2.2015313024e-05 0 -0.056843882598)
    (-2.71471664671e-05 0 -0.0568566058716)
    (-3.24620938062e-05 1.40988703362e-11 -0.0568706349875)
    (-3.7827179709e-05 0 -0.0568858947077)
    (-4.3116793481e-05 0 -0.0569022759481)
    (-4.82122669019e-05 0 -0.0569196631784)
    (-5.29932051483e-05 0 -0.056937920636)
    (-5.73516566776e-05 0 -0.0569568965196)
    (-6.11971638563e-05 0 -0.0569764305186)
    (-6.44585502199e-05 0 -0.0569963592266)
    (-6.70845436057e-05 0 -0.0570165212301)
    (-6.90439551235e-05 -1.70175298827e-11 -0.057036761011)
    (-7.03249035888e-05 0 -0.0570569337625)
    (-7.09335486633e-05 1.81621042031e-11 -0.0570769076408)
    (-7.08913842159e-05 1.88014518569e-11 -0.0570965662548)
    (-7.02332521268e-05 0 -0.057115810082)
    (-6.90041939057e-05 0 -0.057134557137)
    (-6.72564872855e-05 0 -0.0571527427849)
    (-6.50479337394e-05 0 -0.0571703200802)
    (-6.24374998998e-05 0 -0.057187261086)
    (-5.94852664721e-05 0 -0.0572035630069)
    (-5.62466951308e-05 0 -0.0572192658617)
    (-5.27707738925e-05 0 -0.0572344968775)
    (-4.90931060365e-05 0 -0.0572495755855)
    (-4.52272628434e-05 0 -0.0572652495339)
    (-4.11472390755e-05 0 -0.0572831889074)
    (-3.67567312342e-05 1.53012832862e-11 -0.0573069778477)
    (-3.18326024624e-05 -8.00411160012e-12 -0.0573440092311)
    (-2.59249745079e-05 0 -0.0574089693516)
    (-1.81572180599e-05 0 -0.0575300591373)
    (-6.83660760402e-06 9.23825943205e-12 -0.0577598341453)
    (8.21625118941e-07 0 -0.0576298310908)
    (1.79860289033e-06 -9.96635344498e-11 -0.0576301857499)
    (2.62409727933e-06 0 -0.0576309819729)
    (3.07978942858e-06 0 -0.0576322684049)
    (3.06275755915e-06 0 -0.0576341475764)
    (2.497593576e-06 0 -0.0576367425293)
    (1.3257976954e-06 0 -0.0576401793231)
    (-4.89366675392e-07 3.16345473164e-11 -0.0576445855297)
    (-2.96146932542e-06 0 -0.0576500763595)
    (-6.0823979276e-06 0 -0.0576567510285)
    (-9.81835716543e-06 0 -0.0576646901544)
    (-1.41098112727e-05 0 -0.057673952232)
    (-1.88744401903e-05 0 -0.0576845690407)
    (-2.40098147647e-05 0 -0.0576965449053)
    (-2.93973267055e-05 0 -0.0577098558241)
    (-3.49077177673e-05 0 -0.0577244522255)
    (-4.04063995957e-05 0 -0.0577402642805)
    (-4.57585935163e-05 0 -0.0577571840599)
    (-5.08355185984e-05 0 -0.0577750842249)
    (-5.55182254433e-05 0 -0.0577938238721)
    (-5.97022404245e-05 -1.54581066124e-11 -0.0578132503129)
    (-6.33017384472e-05 0 -0.0578332033887)
    (-6.62510061312e-05 0 -0.0578535201527)
    (-6.85059060102e-05 0 -0.0578740398976)
    (-7.00435207622e-05 0 -0.0578946083252)
    (-7.08613596403e-05 1.79659659776e-11 -0.057915081314)
    (-7.09753514378e-05 9.29931775319e-12 -0.0579353280571)
    (-7.04173163416e-05 0 -0.057955233079)
    (-6.92319880642e-05 0 -0.0579746977672)
    (-6.74743943342e-05 0 -0.0579936412177)
    (-6.52061128115e-05 0 -0.0580120008355)
    (-6.24931250228e-05 0 -0.0580297345594)
    (-5.94028123241e-05 0 -0.0580468278273)
    (-5.60006909879e-05 0 -0.0580633141063)
    (-5.23441499172e-05 0 -0.0580793218912)
    (-4.84770006362e-05 0 -0.0580951854554)
    (-4.44214228609e-05 0 -0.0581116932112)
    (-4.0159327485e-05 -1.44797844744e-11 -0.0581306084311)
    (-3.56029209296e-05 0 -0.0581557069628)
    (-3.05438804388e-05 0 -0.0581947549378)
    (-2.456990411e-05 0 -0.0582631401954)
    (-1.69309628424e-05 0 -0.0583903635584)
    (-6.29218531489e-06 0 -0.0586315648211)
    (1.05428019201e-06 0 -0.0585131487391)
    (2.33754057369e-06 -9.85394524544e-11 -0.0585134469445)
    (3.50155507981e-06 -6.38133664678e-11 -0.0585141253922)
    (4.30789195403e-06 0 -0.0585152305108)
    (4.65208756583e-06 0 -0.0585168594512)
    (4.45701937028e-06 0 -0.0585191314271)
    (3.65858917272e-06 0 -0.0585221679356)
    (2.21137561282e-06 3.12777165603e-11 -0.0585260968297)
    (9.27990559543e-08 0 -0.0585310370155)
    (-2.70099630608e-06 0 -0.0585370921512)
    (-6.14974097248e-06 0 -0.0585443522587)
    (-1.02069156957e-05 0 -0.0585528896196)
    (-1.48011270515e-05 0 -0.0585627547425)
    (-1.98390516004e-05 0 -0.0585739731402)
    (-2.52083940582e-05 0 -0.0585865438742)
    (-3.07820558064e-05 0 -0.0586004390574)
    (-3.64245325234e-05 0 -0.0586156028349)
    (-4.19963160543e-05 0 -0.0586319556547)
    (-4.73594202366e-05 0 -0.058649393991)
    (-5.23826294696e-05 0 -0.0586677941438)
    (-5.69469803006e-05 0 -0.0586870154889)
    (-6.09504265409e-05 0 -0.058706905236)
    (-6.43103083489e-05 0 -0.058727302706)
    (-6.69659841828e-05 0 -0.0587480443788)
    (-6.88795917132e-05 0 -0.0587689684868)
    (-7.00351243868e-05 1.77656594862e-11 -0.0587899193356)
    (-7.0438015682e-05 1.83914977612e-11 -0.0588107510121)
    (-7.01126792584e-05 0 -0.0588313308406)
    (-6.90991360925e-05 0 -0.0588515414658)
    (-6.74509231058e-05 0 -0.058871282977)
    (-6.52311112386e-05 0 -0.0588904738905)
    (-6.25093787831e-05 0 -0.0589090539151)
    (-5.9360052855e-05 0 -0.058926991869)
    (-5.58578754924e-05 0 -0.0589443111623)
    (-5.20690934563e-05 0 -0.0589611391969)
    (-4.80456875458e-05 0 -0.0589778211825)
    (-4.38181600499e-05 0 -0.0589951817588)
    (-3.93792502292e-05 -7.1600278705e-12 -0.0590150709099)
    (-3.46563854084e-05 0 -0.0590414482293)
    (-2.94681821435e-05 0 -0.0590824455615)
    (-2.34536139429e-05 0 -0.0591541473352)
    (-1.59606259582e-05 0 -0.0592873402706)
    (-5.87537787327e-06 0 -0.0595395004069)
    (1.30246140353e-06 0 -0.0594306590345)
    (2.91285573432e-06 0 -0.059430908077)
    (4.44296648253e-06 0 -0.0594314765534)
    (5.63687584966e-06 -4.86655757579e-11 -0.0594324251168)
    (6.38954612893e-06 0 -0.0594338430318)
    (6.62384125355e-06 0 -0.0594358346654)
    (6.27054404685e-06 0 -0.0594385243936)
    (5.27468518829e-06 0 -0.0594420234423)
    (3.60482857209e-06 0 -0.059446450487)
    (1.24455915456e-06 1.42255146059e-11 -0.0594519189545)
    (-1.80214367426e-06 0 -0.0594585260026)
    (-5.50584601614e-06 0 -0.0594663523986)
    (-9.81068377383e-06 0 -0.0594754617953)
    (-1.463699275e-05 0 -0.0594858987615)
    (-1.98835168167e-05 1.36285458054e-11 -0.0594976861933)
    (-2.54312228264e-05 0 -0.0595108223415)
    (-3.11472526067e-05 -1.39234133461e-11 -0.0595252797469)
    (-3.68902232681e-05 0 -0.0595410024)
    (-4.25165844799e-05 0 -0.0595579093181)
    (-4.78857992518e-05 0 -0.0595758971802)
    (-5.28653013104e-05 0 -0.0595948421196)
    (-5.73362437506e-05 0 -0.0596146029593)
    (-6.11972767532e-05 0 -0.0596350259413)
    (-6.43681032743e-05 0 -0.0596559487528)