/*--------------------------------*- C++ -*----------------------------------*\
  =========                 |
  \\      /  F ield         | OpenFOAM: The Open Source CFD Toolbox
   \\    /   O peration     | Website:  https://openfoam.org
    \\  /    A nd           | Version:  7
     \\/     M anipulation  |
\*---------------------------------------------------------------------------*/
FoamFile {
  version     2.0;
  format      ascii;
  class       volVectorField;
  location    "3600/porousMat";
  object      vG;
}
// * * * * * * * * * * * * * * * * * * * * * * * * * * * * * * * * * * * * * //

dimensions      [0 1 -1 0 0 0 0];

internalField   nonuniform List<vector>
1290
(
    (-5.40718103699e-08 0 -0.127315727172)
    (-1.41015822962e-07 0 -0.127318331867)
    (-2.74691301083e-07 0 -0.127323945662)
    (-4.71583132201e-07 0 -0.127332507934)
    (-7.46388182849e-07 -1.1464926054e-10 -0.127344211504)
    (-1.1089105991e-06 0 -0.127359301799)
    (-1.56342084416e-06 0 -0.127378011544)
    (-2.1095515958e-06 0 -0.127400518175)
    (-2.74255436904e-06 0 -0.127426920007)
    (-3.45343196404e-06 0 -0.127457221353)
    (-4.2302257982e-06 0 -0.127491330921)
    (-5.05815328213e-06 0 -0.127529063821)
    (-5.92134936864e-06 0 -0.127570152748)
    (-6.80326390543e-06 0 -0.127614262313)
    (-7.68841891458e-06 0 -0.127661005114)
    (-8.5620702693e-06 0 -0.127709959647)
    (-9.41198257155e-06 0 -0.127760686911)
    (-1.02287979643e-05 0 -0.127812748047)
    (-1.10053050581e-05 0 -0.127865715714)
    (-1.17366167816e-05 0 -0.127919184795)
    (-1.24210747062e-05 0 -0.1279727803)
    (-1.3059651191e-05 -4.3451622192e-11 -0.128026164049)
    (-1.36550318335e-05 0 -0.1280790369)
    (-1.42127158241e-05 0 -0.128131140917)
    (-1.47400191106e-05 0 -0.128182259443)
    (-1.52454247428e-05 4.91571543985e-11 -0.128232215672)
    (-1.57407367855e-05 5.08823666158e-11 -0.128280870442)
    (-1.62393516053e-05 0 -0.128328121096)
    (-1.67592792895e-05 0 -0.128373898602)
    (-1.73218688348e-05 0 -0.12841816638)
    (-1.79563707484e-05 0 -0.128460919454)
    (-1.87018325763e-05 0 -0.128502186548)
    (-1.96130458261e-05 0 -0.128542036047)
    (-2.07647836626e-05 0 -0.128580594888)
    (-2.22563772526e-05 0 -0.128618086083)
    (-2.42148771747e-05 0 -0.128654909417)
    (-2.67710553386e-05 0 -0.128691794302)
    (-3.00000994796e-05 0 -0.128730060354)
    (-3.37603588607e-05 0 -0.128772013185)
    (-3.73495166861e-05 0 -0.128821449927)
    (-3.88573182398e-05 0 -0.128884119437)
    (-3.40508835505e-05 0 -0.128967767745)
    (-1.46597201637e-05 0 -0.129081068551)
    (-1.57934325543e-07 0 -0.127692218)
    (-4.13469302529e-07 -2.72131174021e-10 -0.127694793795)
    (-8.07066100309e-07 1.76229735035e-10 -0.127700346538)
    (-1.38900588025e-06 -1.35970425358e-10 -0.127708819959)
    (-2.20302123494e-06 -2.28495100958e-10 -0.127720408568)
    (-3.27743693224e-06 -1.00976064738e-10 -0.127735359357)
    (-4.62554127322e-06 0 -0.12775390712)
    (-6.24619971704e-06 0 -0.127776232071)
    (-8.12486370353e-06 0 -0.127802435203)
    (-1.02348193757e-05 0 -0.127832525355)
    (-1.254011e-05 0 -0.127866413896)
    (-1.49967589363e-05 0 -0.127903920561)
    (-1.75571756208e-05 -3.79551930659e-11 -0.127944781448)
    (-2.01718272208e-05 0 -0.127988663575)
    (-2.27934269588e-05 0 -0.128035181466)
    (-2.53777335014e-05 0 -0.128083913854)
    (-2.78883386204e-05 0 -0.12813442135)
    (-3.02951811082e-05 0 -0.128186263526)
    (-3.25757967145e-05 0 -0.128239010299)
    (-3.4715286469e-05 0 -0.128292252882)
    (-3.67067972186e-05 0 -0.128345612073)
    (-3.85504965699e-05 0 -0.12839874376)
    (-4.02540687474e-05 0 -0.128451342796)
    (-4.18296164235e-05 0 -0.12850314428)
    (-4.32954900587e-05 0 -0.128553922885)
    (-4.4674612561e-05 0 -0.128603492427)
    (-4.59941722306e-05 -5.0706389938e-11 -0.128651703096)
    (-4.72858143086e-05 -2.6274892717e-11 -0.12869843744)
    (-4.85875541295e-05 0 -0.128743608424)
    (-4.99434506912e-05 0 -0.128787154578)
    (-5.14056848523e-05 0 -0.128829038506)
    (-5.30384925924e-05 0 -0.128869242618)
    (-5.49172224617e-05 0 -0.128907774812)
    (-5.71335945068e-05 0 -0.128944680019)
    (-5.97849927764e-05 0 -0.128980084634)
    (-6.2970011201e-05 0 -0.129014298092)
    (-6.67377706451e-05 0 -0.12904803682)
    (-7.0990793327e-05 0 -0.129082865998)
    (-7.52480264097e-05 0 -0.129121997293)
    (-7.81684648599e-05 0 -0.129171594143)
    (-7.65930651103e-05 0 -0.129242676142)
    (-6.38302571077e-05 0 -0.129353505773)
    (-2.67431586291e-05 0 -0.129531920386)
    (-2.43734926255e-07 0 -0.12844716504)
    (-6.43003271715e-07 0 -0.12844968648)
    (-1.26740262597e-06 0 -0.128455125668)
    (-2.20134260553e-06 0 -0.128463433861)
    (-3.51669605209e-06 -1.13815609802e-10 -0.128474808357)
    (-5.26016720629e-06 1.00594361947e-10 -0.12848950062)
    (-7.45356932188e-06 0 -0.128507748795)
    (-1.00953605194e-05 0 -0.12852973871)
    (-1.31616502528e-05 0 -0.128555577598)
    (-1.66087460314e-05 0 -0.128585280931)
    (-2.03771695733e-05 0 -0.128618768491)
    (-2.43951046927e-05 0 -0.128655866713)
    (-2.85822750129e-05 0 -0.128696318635)
    (-3.28572016402e-05 0 -0.128739797148)
    (-3.71391984244e-05 3.79204400708e-11 -0.128785919292)
    (-4.13547993772e-05 0 -0.128834265517)
    (-4.54410058319e-05 0 -0.128884394918)
    (-4.93464410578e-05 0 -0.128935864155)
    (-5.30302509075e-05 0 -0.128988238705)
    (-5.646529225e-05 0 -0.129041102976)
    (-5.96356987386e-05 0 -0.1290940693)
    (-6.25384637293e-05 0 -0.129146783724)
    (-6.517949528e-05 4.43803237174e-11 -0.129198930172)
    (-6.75740040879e-05 0 -0.12925023177)
    (-6.97444351395e-05 2.36062079429e-11 -0.129300450854)
    (-7.17185139407e-05 0 -0.129349386665)
    (-7.35277989572e-05 0 -0.129396873432)
    (-7.52080836111e-05 -2.61777591579e-11 -0.129442776897)
    (-7.67963125336e-05 0 -0.129486989303)
    (-7.83309319146e-05 0 -0.129529426327)
    (-7.98508340545e-05 0 -0.129570022363)
    (-8.13907774335e-05 0 -0.129608729886)
    (-8.29816852683e-05 0 -0.129645521706)
    (-8.46397279688e-05 3.31040299759e-11 -0.1296804077)
    (-8.63580087995e-05 0 -0.129713484969)
    (-8.80810963429e-05 0 -0.129745053351)
    (-8.96650929034e-05 0 -0.129775870919)
    (-9.07938021014e-05 0 -0.129807671553)
    (-9.08199132049e-05 0 -0.129844142006)
    (-8.84345983344e-05 0 -0.129892647789)
    (-8.10334550776e-05 0 -0.12996707056)
    (-6.34559017878e-05 2.35408173094e-11 -0.130092134307)
    (-2.5618709532e-05 0 -0.130309468973)
    (-2.95894460103e-07 0 -0.129324925289)
    (-7.93710940709e-07 2.69717421021e-10 -0.129327352788)
    (-1.59634421348e-06 1.74666671788e-10 -0.129332595357)
    (-2.82349357179e-06 -1.34764519969e-10 -0.129340616891)
    (-4.57425233454e-06 0 -0.129351621105)
    (-6.91316435214e-06 -1.00080735165e-10 -0.12936586499)
    (-9.87108453657e-06 0 -0.12938359401)
    (-1.34465742306e-05 0 -0.12940500308)
    (-1.76077032803e-05 0 -0.129430209894)
    (-2.22957556191e-05 0 -0.129459243096)
    (-2.74285900462e-05 -7.69323035673e-11 -0.129492035391)
    (-3.29074250435e-05 0 -0.129528426931)
    (-3.86218634935e-05 0 -0.129568173645)
    (-4.44568609931e-05 0 -0.129610958791)
    (-5.02991985862e-05 0 -0.12965640841)
    (-5.604421977e-05 0 -0.129704106924)
    (-6.16009183264e-05 -3.85376724853e-11 -0.129753613866)
    (-6.68945813997e-05 0 -0.129804485795)
    (-7.18643025458e-05 3.99183641926e-11 -0.129856284464)
    (-7.64656660495e-05 0 -0.129908587607)
    (-8.06710394583e-05 0 -0.129960998575)
    (-8.44695555878e-05 0 -0.130013152977)
    (-8.78618698195e-05 0 -0.130064723565)
    (-9.08613474529e-05 4.55076940765e-11 -0.130115421515)
    (-9.34878641227e-05 4.69750714324e-11 -0.13016499705)
    (-9.57692077906e-05 0 -0.13021323812)
    (-9.77358573576e-05 2.51326973067e-11 -0.130259968147)
    (-9.94180234813e-05 0 -0.130305041924)
    (-0.000100846459074 0 -0.130348343519)
    (-0.0001020485254 0 -0.130389781861)
    (-0.000103046946524 0 -0.130429288407)
    (-0.00010385622795 0 -0.130466818121)
    (-0.000104483641699 -3.16104745941e-11 -0.130502355825)
    (-0.000104920750061 0 -0.130535940988)
    (-0.000105141559762 0 -0.130567728922)
    (-0.000105086634063 0 -0.130598134911)
    (-0.000104627068765 0 -0.130628142535)
    (-0.000103491583643 0 -0.130659928431)
    (-0.000101100183551 0 -0.130698047912)
    (-9.62306082756e-05 0 -0.130751562545)
    (-8.63541791264e-05 0 -0.130837642612)
    (-6.64022165316e-05 0 -0.130987360607)
    (-2.65230975692e-05 -2.45817307977e-11 -0.131254583545)
    (-3.03422469828e-07 0 -0.130402054661)
    (-8.39000044478e-07 2.6811537732e-10 -0.1304043618)
    (-1.74970534032e-06 0 -0.130409352172)
    (-3.19225688616e-06 -1.33964151575e-10 -0.130417005767)
    (-5.29185506254e-06 0 -0.130427535012)
    (-8.13039205633e-06 0 -0.13044120426)
    (-1.17481919222e-05 0 -0.130458268911)
    (-1.61451933205e-05 0 -0.130478935011)
    (-2.12836323506e-05 0 -0.130503335938)
    (-2.7091026106e-05 3.91565241098e-11 -0.130531516377)
    (-3.34656592071e-05 -3.82381590596e-11 -0.13056342751)
    (-4.02836298198e-05 0 -0.130598928172)
    (-4.74051153897e-05 7.47938309474e-11 -0.130637791875)
    (-5.46831223127e-05 0 -0.130679717511)
    (-6.19710793505e-05 0 -0.13072434408)
    (-6.91312947085e-05 0 -0.130771263562)
    (-7.60441727433e-05 -3.83103634764e-11 -0.130820037004)
    (-8.26089036464e-05 0 -0.130870223103)
    (-8.87411496595e-05 0 -0.13092138119)
    (-9.43769095877e-05 0 -0.130973082162)
    (-9.94723933558e-05 0 -0.131024920505)
    (-0.000104004704877 0 -0.131076521262)
    (-0.00010796718867 0 -0.131127545703)
    (-0.000111366207824 0 -0.131177693671)
    (-0.000114219478214 0 -0.131226705671)
    (-0.000116551114105 0 -0.131274361127)
    (-0.0001183887468 2.4986400202e-11 -0.131320476639)
    (-0.000119760810084 0 -0.131364904438)
    (-0.000120693625854 0 -0.131407528913)
    (-0.000121209955282 0 -0.131448263622)
    (-0.000121326694759 0 -0.131487050346)
    (-0.000121052852703 0 -0.131523859358)
    (-0.000120389909411 0 -0.131558698467)
    (-0.000119325462674 0 -0.131591638397)
    (-0.00011783311562 0 -0.131622879205)
    (-0.000115854946668 0 -0.131652905085)
    (-0.000113274668277 0 -0.131682826897)
    (-0.000109849454597 0 -0.131715084173)
    (-0.000105065924062 0 -0.131754816091)
    (-9.78415876694e-05 0 -0.131812385455)
    (-8.59325908918e-05 0 -0.131907787564)
    (-6.48074318557e-05 0 -0.132077996313)
    (-2.55888061547e-05 -2.44560040472e-11 -0.132388781947)
    (-2.5453723509e-07 0 -0.131635260403)
    (-7.52109462959e-07 0 -0.131637418671)
    (-1.68280948053e-06 0 -0.13164209717)
    (-3.243356787e-06 -1.33047486513e-10 -0.131649295666)
    (-5.58346772236e-06 -1.11791836378e-10 -0.131659235932)
    (-8.80184848783e-06 0 -0.13167219201)
    (-1.29491807044e-05 9.0302675308e-11 -0.13168842969)
    (-1.80283648354e-05 8.451859102e-11 -0.131708170269)
    (-2.39981128913e-05 0 -0.131731564195)
    (-3.07755816771e-05 0 -0.131758678097)
    (-3.82423695618e-05 -7.59540293322e-11 -0.131789486168)
    (-4.62519282506e-05 3.74185707e-11 -0.131823871217)
    (-5.46379192438e-05 0 -0.13186163003)
    (-6.32227094244e-05 0 -0.131902483599)
    (-7.18267894436e-05 3.72492409699e-11 -0.13194608896)
    (-8.0277714325e-05 3.757296641e-11 -0.13199205282)
    (-8.84260370811e-05 0 -0.132039939163)
    (-9.61443290961e-05 0 -0.132089313324)
    (-0.000103320671563 0 -0.132139735206)
    (-0.000109867583801 0 -0.132190770885)
    (-0.000115723685351 0 -0.132242006311)
    (-0.000120850461545 0 -0.132293057398)
    (-0.000125231258083 0 -0.132343575059)
    (-0.000128866358153 0 -0.132393249777)
    (-0.000131769208389 0 -0.132441813506)
    (-0.000133962516735 2.39763508661e-11 -0.132489039135)
    (-0.000135474846086 0 -0.132534740877)
    (-0.000136337909018 0 -0.132578771063)
    (-0.000136581706481 0 -0.132621018117)
    (-0.000136234296896 0 -0.132661404315)
    (-0.000135321962601 0 -0.132699884446)
    (-0.000133863882176 0 -0.132736445997)
    (-0.000131874287422 0 -0.132771118977)
    (-0.000129361618144 0 -0.132804003379)
    (-0.000126319363337 0 -0.132835341836)
    (-0.000122718694568 0 -0.132865691353)
    (-0.000118475802864 0 -0.132896300695)
    (-0.00011338679157 -3.86144150568e-11 -0.132929897939)
    (-0.000106986163481 4.0365082793e-11 -0.132972234415)
    (-9.82693388756e-05 -2.11111464656e-11 -0.133034972187)
    (-8.51422791293e-05 2.20997375819e-11 -0.133140812632)
    (-6.33979470116e-05 0 -0.133332252391)
    (-2.48347905512e-05 2.43089395704e-11 -0.133686108)
    (-1.40604394474e-07 0 -0.133026325027)
    (-5.12483460222e-07 0 -0.133028313125)
    (-1.36144658038e-06 -1.71127370817e-10 -0.13303263407)
    (-2.92717617639e-06 0 -0.133039309658)
    (-5.38219626562e-06 0 -0.13304857236)
    (-8.84166742707e-06 0 -0.133060705384)
    (-1.33670728442e-05 0 -0.133075987125)
    (-1.89669274443e-05 0 -0.133094654879)
    (-2.55992120336e-05 0 -0.133116880112)
    (-3.31744260722e-05 0 -0.133142753398)
    (-4.15612078376e-05 0 -0.133172277)
    (-5.0594762424e-05 0 -0.133205362298)
    (-6.00846944631e-05 0 -0.133241835105)
    (-6.98264475322e-05 0 -0.133281443743)
    (-7.96092794843e-05 0 -0.133323871274)
    (-8.92252446397e-05 0 -0.133368746406)
    (-9.84931263956e-05 0 -0.133415640484)
    (-0.000107256662864 0 -0.13346413028)
    (-0.000115374491804 0 -0.13351377816)
    (-0.000122732176675 0 -0.133564146629)
    (-0.00012924775652 -4.09643026418e-11 -0.133614814787)
    (-0.000134867028626 0 -0.133665390212)
    (-0.000139561318335 0 -0.13371551439)
    (-0.000143323782238 0 -0.133764868443)
    (-0.000146165505821 0 -0.133813175576)
    (-0.000148110637351 4.75939067147e-11 -0.133860202542)
    (-0.000149193105238 4.92665591967e-11 -0.133905759636)
    (-0.000149451826568 0 -0.133949697828)
    (-0.000148929365325 0 -0.133991908229)
    (-0.000147669001945 0 -0.134032318396)
    (-0.000145712327126 0 -0.13407089065)
    (-0.00014309924653 0 -0.134107623265)
    (-0.000139864217092 0 -0.134142559051)
    (-0.000136038542488 0 -0.134175814986)
    (-0.00013163965438 0 -0.134207660215)
    (-0.000126660727107 0 -0.134238702728)
    (-0.000121041898709 0 -0.134270302991)
    (-0.000114604001826 -3.83303939757e-11 -0.134305439991)
    (-0.000106920857329 0 -0.134350428444)
    (-9.70593420115e-05 0 -0.13441814944)
    (-8.30876999681e-05 0 -0.13453386801)
    (-6.11484822383e-05 0 -0.134745311652)
    (-2.37775240504e-05 0 -0.135139738819)
    (4.51019526823e-08 0 -0.13456179885)
    (-1.03164506727e-07 -2.62046691161e-10 -0.134563598344)
    (-7.57060709864e-07 0 -0.134567522236)
    (-2.20182200254e-06 0 -0.134573616516)
    (-4.63080034509e-06 1.10014693097e-10 -0.134582122949)
    (-8.17470511188e-06 0 -0.134593334308)
    (-1.29073962419e-05 0 -0.134607541349)
    (-1.88447558512e-05 0 -0.13462499845)
    (-2.59478980415e-05 0 -0.134645899195)
    (-3.41252091251e-05 0 -0.134670361442)
    (-4.32368875614e-05 0 -0.134698418566)
    (-5.31043703727e-05 0 -0.134730015607)
    (-6.35187213766e-05 0 -0.134765012393)
    (-7.42519683064e-05 0 -0.134803190357)
    (-8.50681141426e-05 3.66598104762e-11 -0.134844264552)
    (-9.57260287582e-05 0 -0.134887896793)
    (-0.000106008661038 -3.74490166256e-11 -0.134933683363)
    (-0.000115725106724 0 -0.134981211221)
    (-0.000124701205414 0 -0.135030043124)
    (-0.000132796500719 0 -0.135079739268)
    (-0.000139907036977 0 -0.135129875492)
    (-0.000145960596779 0 -0.135180052134)
    (-0.000150915818693 0 -0.13522990128)
    (-0.000154759058487 0 -0.135279094281)
    (-0.000157498706217 0 -0.135327343641)
    (-0.000159162385052 -2.36018420389e-11 -0.135374407086)
    (-0.000159792159369 -4.88631525677e-11 -0.13542008658)
    (-0.000159439377148 0 -0.135464228017)
    (-0.00015816344368 0 -0.135506718998)
    (-0.000156025745964 0 -0.135547485204)
    (-0.000153092088261 0 -0.135586489464)
    (-0.000149424856016 0 -0.135623731895)
    (-0.000145086095724 0 -0.135659259984)
    (-0.000140130101406 0 -0.135693199839)
    (-0.000134602419913 0 -0.135725841754)
    (-0.000128519850622 0 -0.13575784231)
    (-0.000121842581229 -3.63925156045e-11 -0.135790676615)
    (-0.000114415009649 0 -0.135827582603)
    (-0.000105833092994 0 -0.135875438799)
    (-9.5211239766e-05 4.15780221751e-11 -0.135948317452)
    (-8.07320172311e-05 0 -0.136073928241)
    (-5.88346917075e-05 0 -0.136304914055)
    (-2.27278370565e-05 0 -0.136738277222)
    (3.08147708146e-07 0 -0.136234218016)
    (4.87888506789e-07 -2.59687827965e-10 -0.136235824605)
    (1.51344146171e-07 0 -0.136239341654)
    (-1.03575108792e-06 0 -0.136244837582)
    (-3.28473264672e-06 1.09024553987e-10 -0.136252563821)
    (-6.74154428451e-06 0 -0.136262821043)
    (-1.14927811348e-05 0 -0.136275911463)
    (-1.75648107972e-05 0 -0.136292107021)
    (-2.49253660314e-05 0 -0.136311623891)
    (-3.34859166436e-05 3.7927545074e-11 -0.136334608927)
    (-4.31041778884e-05 0 -0.136361129322)
    (-5.35927426697e-05 0 -0.136391167019)
    (-6.47301539307e-05 0 -0.136424619577)
    (-7.62705523912e-05 0 -0.13646130551)
    (-8.79603822705e-05 0 -0.136500972808)
    (-9.95492761624e-05 0 -0.136543313611)
    (-0.00011076879474 -3.71141203315e-11 -0.136587919419)
    (-0.000121363970476 0 -0.136634415409)
    (-0.000131135558178 0 -0.136682387731)
    (-0.000139923768817 0 -0.136731403523)
    (-0.000147602031263 0 -0.136781039352)
    (-0.000154078365368 0 -0.136830890203)
    (-0.000159296909083 0 -0.136880580019)
    (-0.000163234358378 -4.38406574119e-11 -0.136929767218)
    (-0.000165896287916 0 -0.136978151775)
    (-0.000167313781869 0 -0.137025476867)
    (-0.000167537162555 0 -0.137071531383)
    (-0.000166632352147 0 -0.137116148799)
    (-0.000164675797327 0 -0.137159205138)
    (-0.000161750442465 0 -0.137200616421)
    (-0.000157945119306 0 -0.137240337116)
    (-0.000153347312228 0 -0.137278359934)
    (-0.000148045328721 0 -0.137314727316)
    (-0.000142119590553 0 -0.137349565841)
    (-0.00013563998827 0 -0.137383177153)
    (-0.000128648519183 0 -0.137416259168)
    (-0.000121132639393 -3.60747273474e-11 -0.137450394262)
    (-0.000112960517804 3.76895053012e-11 -0.137489076054)
    (-0.000103758639273 0 -0.137539746787)
    (-9.26797971107e-05 0 -0.137617657877)
    (-7.79922777047e-05 0 -0.137752890403)
    (-5.6373288333e-05 0 -0.138002741854)
    (-2.16518789217e-05 0 -0.138473304982)
    (6.46010274847e-07 0 -0.138031200929)
    (1.25598246448e-06 -2.57195579795e-10 -0.138032618419)
    (1.3569368363e-06 0 -0.138035735186)
    (5.63116357595e-07 0 -0.13804064036)
    (-1.35253662642e-06 0 -0.138047592239)
    (-4.54920453623e-06 0 -0.138056898638)
    (-9.12789227946e-06 0 -0.138068870833)
    (-1.51276061119e-05 8.16369151791e-11 -0.138083797191)
    (-2.25273848645e-05 0 -0.138101915901)
    (-3.12468943032e-05 0 -0.138123403598)
    (-4.11470031349e-05 0 -0.138148362104)
    (-5.20392889313e-05 0 -0.138176813129)
    (-6.36934229188e-05 0 -0.138208695549)
    (-7.58505384058e-05 0 -0.1382438681)
    (-8.82377456647e-05 0 -0.13828211329)
    (-0.000100591502389 0 -0.138323148294)
    (-0.000112606856612 0 -0.138366595642)
    (-0.000123982170475 0 -0.138412105239)
    (-0.000134493046085 0 -0.138459290023)
    (-0.000143952019804 0 -0.138507733638)
    (-0.000152204012449 -3.98819693702e-11 -0.13855701767)
    (-0.000159134125832 0 -0.138606734151)
    (-0.000164667440723 0 -0.138656496783)
    (-0.000168767689881 0 -0.138705950007)
    (-0.00017143550951 0 -0.13875477602)
    (-0.000172701287786 2.31721462662e-11 -0.138802698843)
    (-0.000172623359402 4.79746639679e-11 -0.138849486887)
    (-0.000171278354892 0 -0.138894953503)
    (-0.000168759753468 0 -0.138938955029)
    (-0.000165169765378 0 -0.138981389527)
    (-0.000160618856613 0 -0.139022194052)
    (-0.000155217456081 0 -0.139061346886)
    (-0.000149074470096 0 -0.139098878277)
    (-0.000142295893201 0 -0.139134907812)
    (-0.000134970478822 0 -0.13916974359)
    (-0.000127162445733 0 -0.139204117358)
    (-0.000118885277123 0 -0.139239713208)
    (-0.000110045083123 -1.86692260382e-11 -0.139280273592)
    (-0.00010032958111 0 -0.139333802651)
    (-8.89860663695e-05 0 -0.139416734763)
    (-7.4418934049e-05 0 -0.139561499033)
    (-5.35010578095e-05 0 -0.13982981657)
    (-2.04808583361e-05 0 -0.140336181545)
    (1.05140719098e-06 0 -0.139942013004)
    (2.18422034681e-06 -2.54597100149e-10 -0.139943241524)
    (2.83261671512e-06 0 -0.139945957586)
    (2.55788674868e-06 0 -0.139950267137)
    (1.12003652728e-06 1.06887419585e-10 -0.139956432661)
    (-1.65236812116e-06 0 -0.139964765672)
    (-5.87502523201e-06 0 -0.13997558354)
    (-1.1602671684e-05 0 -0.139989188882)
    (-1.88289860653e-05 0 -0.140005839888)
    (-2.74880746485e-05 7.4369214017e-11 -0.140025740471)
    (-3.7451321398e-05 0 -0.140049028909)
    (-4.8534517829e-05 0 -0.14007576814)
    (-6.05069631063e-05 0 -0.140105942541)
    (-7.30993701705e-05 0 -0.140139456745)
    (-8.60157628307e-05 3.56213825503e-11 -0.140176138335)
    (-9.89431859172e-05 0 -0.140215738885)
    (-0.000111580390547 -3.63900107429e-11 -0.140258010765)
    (-0.000123643684403 0 -0.140302580171)
    (-0.000134865102107 0 -0.140349059046)
    (-0.000145011326633 0 -0.140397049917)
    (-0.000153892010161 0 -0.140446141912)
    (-0.000161361996991 0 -0.140495924442)
    (-0.000167322406228 0 -0.140546001233)
    (-0.000171720484564 -4.29919031929e-11 -0.140596000723)
    (-0.000174544559629 0 -0.140645583033)
    (-0.000175821558983 0 -0.140694447695)
    (-0.000175610885208 0 -0.140742335998)
    (-0.000173997627322 0 -0.140789033359)
    (-0.000171087276125 0 -0.140834369147)
    (-0.00016699860932 0 -0.140878214852)
    (-0.000161860045159 0 -0.140920484217)
    (-0.000155801770195 0 -0.140961134226)
    (-0.000148952832378 0 -0.141000178716)
    (-0.000141433227184 0 -0.141037728432)
    (-0.000133348444072 0 -0.141074095305)
    (-0.00012477392659 0 -0.141110042955)
    (-0.000115735147967 -1.7692974312e-11 -0.141147345968)
    (-0.000106161154548 1.84853879816e-11 -0.141189969807)
    (-9.57977443634e-05 0 -0.141246428871)
    (-8.40295567078e-05 0 -0.141334278997)
    (-6.95263343447e-05 0 -0.141488315928)
    (-4.95691243366e-05 0 -0.141774743286)
    (-1.88972161527e-05 0 -0.142315976956)
    (1.52233470089e-06 0 -0.141959189879)
    (3.2680080058e-06 -2.51914493878e-10 -0.141960242128)
    (4.5726432646e-06 -1.63137903029e-10 -0.141962583966)
    (4.943568707e-06 -1.25869821503e-10 -0.141966332449)
    (4.13053719781e-06 1.05761212327e-10 -0.141971749847)
    (1.95222328853e-06 0 -0.141979148132)
    (-1.7221716947e-06 0 -0.141988846667)
    (-6.96546909533e-06 7.99610162668e-11 -0.142001158213)
    (-1.37896447935e-05 0 -0.142016358127)
    (-2.21491678652e-05 0 -0.142034674937)
    (-3.19330426782e-05 -3.59310299982e-11 -0.142056280772)
    (-4.2970651511e-05 7.08071981808e-11 -0.142081280687)
    (-5.503828256e-05 0 -0.142109706495)
    (-6.78679161678e-05 0 -0.142141514679)
    (-8.11552345154e-05 3.52471758406e-11 -0.142176587469)
    (-9.45679492724e-05 0 -0.142214736769)
    (-0.000107791983703 0 -0.14225568987)
    (-0.000120530667255 0 -0.142299157946)
    (-0.000132483012871 0 -0.14234480159)
    (-0.000143379141694 0 -0.142392241299)
    (-0.000152992909641 0 -0.142441076297)
    (-0.00016114637555 0 -0.142490898066)
    (-0.000167711359014 0 -0.142541303075)
    (-0.000172609887809 -4.25438247067e-11 -0.142591902528)
    (-0.000175812258972 0 -0.142642334406)
    (-0.000177333871658 4.54052605078e-11 -0.142692269102)
    (-0.00017722846054 4.70036296423e-11 -0.142741415637)
    (-0.000175583130317 0 -0.142789525205)
    (-0.000172510484764 0 -0.142836392842)
    (-0.000168141218214 0 -0.142881856962)
    (-0.000162619834349 0 -0.1429258002)
    (-0.000156093749749 0 -0.142968152715)
    (-0.00014871316618 0 -0.143008907517)
    (-0.000140616737827 0 -0.143048164654)
    (-0.000131926934731 0 -0.143086242194)
    (-0.000122732765091 0 -0.143123938964)
    (-0.000113068157108 0 -0.143163123835)
    (-0.000102868097689 0 -0.143207972269)
    (-9.18918280856e-05 3.82532082156e-11 -0.143267444619)
    (-7.95815061561e-05 -2.00102790003e-11 -0.143360023078)
    (-6.48124362697e-05 0 -0.143522423379)
    (-4.53930451498e-05 0 -0.143825147843)
    (-1.70915190101e-05 2.30956485801e-11 -0.144399585363)
    (2.05406279735e-06 0 -0.144074577727)
    (4.49650722583e-06 -2.49158836125e-10 -0.144075464375)
    (6.56024319833e-06 0 -0.144077454932)
    (7.69947357145e-06 0 -0.144080671012)
    (7.65689389787e-06 0 -0.144085368941)
    (6.24398394e-06 0 -0.144091856323)
    (3.31449423851e-06 0 -0.144100448308)
    (-1.22341668848e-06 7.90863682909e-11 -0.144111463824)
    (-7.40367331355e-06 0 -0.144125190899)
    (-1.5205994819e-05 0 -0.144141877571)
    (-2.45458929136e-05 0 -0.144161725386)
    (-3.52745281816e-05 0 -0.14418488058)
    (-4.71861004758e-05 0 -0.144211422602)
    (-6.00245369116e-05 0 -0.144241362263)
    (-7.34933167638e-05 0 -0.14427463956)
    (-8.72692944184e-05 0 -0.144311130564)
    (-0.000101015998989 0 -0.144350660701)
    (-0.000114396483791 0 -0.14439296015)
    (-0.000127088796496 0 -0.144437710562)
    (-0.000138795563608 0 -0.14448455968)
    (-0.000149255601061 -3.86452665311e-11 -0.144533125782)
    (-0.000158254346118 0 -0.144583008472)
    (-0.000165627515328 0 -0.144633800382)
    (-0.000171264765025 0 -0.144685099744)
    (-0.000175108801905 0 -0.144736520813)
    (-0.000177153399101 4.49149149441e-11 -0.144787703285)
    (-0.000177438378594 2.3248294383e-11 -0.144838320143)
    (-0.000176043290854 0 -0.144888082698)
    (-0.00017307997016 0 -0.144936744418)
    (-0.000168685985836 0 -0.144984103044)
    (-0.000163015282029 0 -0.145030002089)
    (-0.000156232812557 0 -0.145074336398)
    (-0.00014850703081 0 -0.145117069568)
    (-0.00014000172747 0 -0.145158285266)
    (-0.000130860374793 0 -0.145198304728)
    (-0.00012119250159 0 -0.145237963639)
    (-0.000111053557152 0 -0.145279233028)
    (-0.000100398318712 -3.61994611859e-11 -0.145326521078)
    (-8.9007302324e-05 0 -0.145389267407)
    (-7.6359701097e-05 0 -0.145486887345)
    (-6.14247602751e-05 0 -0.145657850488)
    (-4.23274071061e-05 0 -0.145975908896)
    (-1.57304632872e-05 0 -0.146578912053)
    (2.63570048002e-06 0 -0.146282871848)
    (5.84385143423e-06 -2.46348631136e-10 -0.146283617361)
    (8.75388769953e-06 -1.59533416169e-10 -0.14628531348)
    (1.07697298851e-05 0 -0.146288076277)
    (1.16302189146e-05 0 -0.146292148628)
    (1.11425484257e-05 0 -0.146297828568)
    (9.14647293179e-06 0 -0.146305419839)
    (5.52843903204e-06 7.81942914007e-11 -0.146315242074)
    (2.31997639886e-07 0 -0.146327592539)
    (-6.75249076521e-06 0 -0.146342730378)
    (-1.53743524312e-05 0 -0.146360880647)
    (-2.55172892394e-05 0 -0.146382224049)
    (-3.70028176288e-05 0 -0.146406886856)
    (-4.95976290011e-05 0 -0.146434932851)
    (-6.30209851454e-05 0 -0.146466359686)
    (-7.69551395159e-05 0 -0.146501097643)
    (-9.10613313085e-05 0 -0.146539007087)
    (-0.000104990790136 0 -0.146579889137)
    (-0.000118398550592 0 -0.146623484978)
    (-0.000130956573674 0 -0.14666948536)
    (-0.000142367450752 0 -0.146717538722)
    (-0.000152376066352 0 -0.14676726309)
    (-0.000160775770872 0 -0.146818256765)
    (-0.000167414960457 0 -0.146870110947)
    (-0.000172198979283 0 -0.146922421217)
    (-0.000175087810967 4.44141487155e-11 -0.146974798339)
    (-0.000176095039205 4.59787444029e-11 -0.14702687753)
    (-0.000175281698146 0 -0.147078327102)
    (-0.000172747840231 0 -0.147128853664)
    (-0.000168627307765 0 -0.147178207442)
    (-0.000163077778096 0 -0.147226184726)
    (-0.000156273446958 0 -0.147272634788)
    (-0.000148400132137 0 -0.147317479673)
    (-0.000139644688731 0 -0.147360777906)
    (-0.000130172733641 0 -0.147402847992)
    (-0.000120114218865 0 -0.147444552956)
    (-0.000109545400125 0 -0.147487954397)
    (-9.84481255731e-05 -1.79000696762e-11 -0.147537677275)
    (-8.6640963521e-05 0 -0.147603620573)
    (-7.36704553587e-05 0 -0.147706113904)
    (-5.86340348574e-05 0 -0.147885368338)
    (-3.99015648954e-05 0 -0.148218350676)
    (-1.46884446832e-05 0 -0.148848751017)
    (3.25615350881e-06 0 -0.148576647586)
    (7.28213933581e-06 0 -0.148577270193)
    (1.11074162063e-05 0 -0.148578691383)
    (1.40921896242e-05 -1.21663939395e-10 -0.148581062792)
    (1.59738653223e-05 0 -0.148584607579)
    (1.65596031339e-05 0 -0.148589586663)
    (1.56763601171e-05 0 -0.148596310984)
    (1.31867129707e-05 0 -0.148605058606)
    (9.01207143023e-06 0 -0.148616126218)
    (3.11139788639e-06 3.55637865147e-11 -0.148629797386)
    (-4.50535918564e-06 0 -0.148646315006)
    (-1.37646150404e-05 0 -0.148665880997)
    (-2.45267094346e-05 0 -0.148688654488)
    (-3.65924818749e-05 0 -0.148714746904)
    (-4.97087920418e-05 3.40713645134e-11 -0.148744215483)
    (-6.35780570661e-05 0 -0.148777055854)
    (-7.78681315168e-05 -3.48085333653e-11 -0.148813199367)
    (-9.22255581702e-05 0 -0.148852506)
    (-0.0001062914612 0 -0.148894773295)
    (-0.00011971449813 0 -0.148939742951)
    (-0.000132163253276 0 -0.148987105299)
    (-0.000143340609376 0 -0.149036507398)
    (-0.000152993191883 0 -0.149087564853)
    (-0.000160920258186 0 -0.149139871882)
    (-0.000166977342959 -4.2467159305e-11 -0.149193013529)
    (-0.000171078703306 0 -0.149246577081)
    (-0.000173197185173 0 -0.149300163067)
    (-0.000173359710993 0 -0.149353396006)
    (-0.000171642037135 0 -0.149405932315)
    (-0.000168161195236 0 -0.149457469058)
    (-0.000163065393594 0 -0.149507749666)
    (-0.000156527061996 -2.74664684005e-11 -0.149556569253)
    (-0.000148743672511 0 -0.149603789466)
    (-0.00013992680694 0 -0.14964943436)
    (-0.000130264153187 0 -0.14969381652)
    (-0.000119904630388 0 -0.149737818888)
    (-0.000108948397031 0 -0.149783588174)
    (-9.74026086984e-05 0 -0.149835959692)
    (-8.51206360498e-05 0 -0.149905274892)