/*--------------------------------*- C++ -*----------------------------------*\
| =========                 |                                                 |
| \\      /  F ield         | OpenFOAM: The Open Source CFD Toolbox           |
|  \\    /   O peration     | Version:  5.0                                   |
|   \\  /    A nd           | Web:      www.OpenFOAM.org                      |
|    \\/     M anipulation  |                                                 |
\*---------------------------------------------------------------------------*/
FoamFile {
  version     2.0;
  format      ascii;
  class       volScalarField;
  location    "0";
  object      rho_s;
}
// * * * * * * * * * * * * * * * * * * * * * * * * * * * * * * * * * * * * * //

dimensions      [1 -3 0 0 0 0 0];

internalField   uniform 280;

boundaryField {
  lateral
  {
    type            zeroGradient;
  }
  demiseMat_to_porousMat
  {
    type zeroGradient;
  }

  wedge_pos
  {
    type            wedge;
  }
  wedge_neg
  {
    type            wedge;
  }
  center
  {
    type            empty;
  }
  demiseMat_to_ceramicMat
  {
    type zeroGradient;
  }
  top
  {
    type            zeroGradient;
  }
  bottom
  {
    type        zeroGradient;
  }
  demiseMat_to_hotFlow
  {
    type            zeroGradient;
  }
}


// ************************************************************************* //
