/*---------------------------------------------------------------------------*\
Initialization file. Do not modify.
Initialization of element mass-fraction profile. Used in elementConservation mode.
\*---------------------------------------------------------------------------*/

FoamFile {
  version         2.0;
  format          ascii;
  root            "";
case            "";
  instance        "";
  local           "";
  class           volScalarField;
  object          Zdefault;
}

// * * * * * * * * * * * * * * * * * * * * * * * * * * * * * * * * * * * * * //


dimensions          [ 0 0 0 0 0 0 0 ];

internalField   uniform 1.0;

boundaryField {
  top
  {
    type 		positiveGradient;
    gradient 	uniform 0;
    value		uniform 1;
  }
  sides
  {
    type            zeroGradient;
  }

  bottom
  {
    type            zeroGradient;
  }

}


// ************************************************************************* //
