/*--------------------------------*- C++ -*----------------------------------*\
| =========                 |                                                 |
| \\      /  F ield         | OpenFOAM: The Open Source CFD Toolbox           |
|  \\    /   O peration     | Version:  plus                                  |
|   \\  /    A nd           | Web:      www.OpenFOAM.com                      |
|    \\/     M anipulation  |                                                 |
\*---------------------------------------------------------------------------*/
FoamFile {
  version     2.0;
  format      ascii;
  class       volScalarField;
  location    "0";
  object      N2;
}
// * * * * * * * * * * * * * * * * * * * * * * * * * * * * * * * * * * * * * //

dimensions      [0 0 0 0 0 0 0];

internalField   uniform 0.8;

boundaryField {
#include "Bc"
  left
  {
    type            fixedValue;
    value           $internalField ;
  }
  right
  {
    type            inletOutlet;
    inletValue      $internalField;
    value           $internalField ;
  }
  flow_to_porousMat
  {
    //type            fixedValue;
    // value           $internalField;
    type            zeroGradient;
  }
}


// ************************************************************************* //
