/*--------------------------------*- C++ -*----------------------------------*\
| =========                 |                                                 |
| \\      /  F ield         | OpenFOAM: The Open Source CFD Toolbox           |
|  \\    /   O peration     | Version:  7.0                                   |
|   \\  /    A nd           | Web:      www.OpenFOAM.org                      |
|    \\/     M anipulation  |                                                 |
\*---------------------------------------------------------------------------*/
FoamFile {
  version     2.0;
  format      ascii;
  class       volScalarField;
  location    "0/tank";
  object      rho_s;
}
// * * * * * * * * * * * * * * * * * * * * * * * * * * * * * * * * * * * * * //

dimensions      [1 -3 0 0 0 0 0];

internalField   uniform 7800;

boundaryField {
  top
  {
    type zeroGradient;
  }

  bottom
  {
    type zeroGradient;
  }

  wall
  {
    type zeroGradient;
  }

  tank_to_porousMat
  {
    type zeroGradient;
  }

#includeEtc "caseDicts/setConstraintTypes"
}
