/*--------------------------------*- C++ -*----------------------------------*\
| =========                 |                                                 |
| \\      /  F ield         | OpenFOAM: The Open Source CFD Toolbox           |
|  \\    /   O peration     | Version:  4.x                                   |
|   \\  /    A nd           | Web:      www.OpenFOAM.org                      |
|    \\/     M anipulation  |                                                 |
\*---------------------------------------------------------------------------*/
FoamFile
{
    version         2.0;
    format          ascii;
    class           volScalarField;
    object          Ydefault;
}

// * * * * * * * * * * * * * * * * * * * * * * * * * * * * * * * * * * * * * //


dimensions          [ 0 0 0 0 0 0 0 ];

internalField   uniform 1.0;

boundaryField
{
  porousMat2_to_porousMat1
    {
      type            coupledMixed;
      value           uniform 1;
      Tnbr            O2;
      kappaMethod     lookup;
      kappa           diffY;
    }
    sides       
    {
        type            zeroGradient;
    }

    bottom          
    {
        type            zeroGradient;
    }
}


// ************************************************************************* //
