/*--------------------------------*- C++ -*----------------------------------*\
  =========                 |
  \\      /  F ield         | OpenFOAM: The Open Source CFD Toolbox
   \\    /   O peration     | Website:  https://openfoam.org
    \\  /    A nd           | Version:  7
     \\/     M anipulation  |
\*---------------------------------------------------------------------------*/
FoamFile
{
    version     2.0;
    format      ascii;
    class       volVectorField;
    location    "0.1/porousMat";
    object      vG;
}
// * * * * * * * * * * * * * * * * * * * * * * * * * * * * * * * * * * * * * //

dimensions      [0 1 -1 0 0 0 0];

internalField   nonuniform List<vector> 
4200
(
(-0.00728304 -0.00066294 -0)
(-0.0205146 -0.00550113 -4.75987e-16)
(-0.0336046 -0.0103107 4.7526e-16)
(-0.0464446 -0.015062 -0)
(-0.0589374 -0.0197525 -4.73035e-16)
(-0.0710233 -0.0242834 4.70895e-16)
(-0.0826258 -0.0286251 -0)
(-0.0936329 -0.0327964 -0)
(-0.103955 -0.0367969 -1.86282e-15)
(-0.11357 -0.0405132 1.85497e-15)
(-0.122435 -0.043902 -0)
(-0.130415 -0.047031 3.67774e-15)
(-0.137435 -0.0499055 2.05447e-21)
(-0.143513 -0.0523974 -1.82321e-15)
(-0.148603 -0.0544474 -3.63296e-15)
(-0.152551 -0.056162 1.35493e-15)
(-0.155297 -0.0575502 -1.35087e-15)
(-0.156861 -0.0584647 2.33302e-20)
(-0.157201 -0.0588297 -2.23396e-15)
(-0.156167 -0.0588017 4.43884e-16)
(-0.153706 -0.0583415 1.77153e-15)
(-0.149845 -0.0573382 1.76466e-15)
(-0.14456 -0.0557192 1.75885e-15)
(-0.137715 -0.0536203 1.75099e-15)
(-0.129283 -0.0510201 -0)
(-0.119313 -0.0478299 1.30282e-15)
(-0.107797 -0.043986 -1.01094e-18)
(-0.0946535 -0.0396173 -1.72524e-15)
(-0.079893 -0.0346996 4.29031e-16)
(-0.0635705 -0.029195 -0)
(-0.0456913 -0.0230593 -0)
(-0.0262239 -0.0163849 -0)
(-0.00518941 -0.00913339 -1.68894e-15)
(0.017391 -0.00132919 -2.10098e-15)
(0.0415294 0.007056 -1.25503e-15)
(0.0672182 0.016001 4.15397e-16)
(0.094441 0.0255663 2.89543e-15)
(0.123241 0.0356573 -1.64521e-15)
(0.153668 0.0462829 -2.04412e-15)
(0.185674 0.057527 -4.06037e-15)
(0.219261 0.0694784 -6.85493e-15)
(0.254556 0.0819569 -3.9885e-16)
(0.291647 0.0949483 3.97029e-15)
(0.330417 0.108663 -3.94737e-16)
(0.37085 0.123213 -1.17096e-15)
(0.413107 0.138301 -1.93054e-15)
(0.457229 0.153854 -1.52689e-15)
(0.502895 0.170199 -0)
(0.549902 0.18743 1.48953e-15)
(0.598264 0.205049 -0)
(0.647733 0.222821 -0)
(0.69748 0.241135 -0)
(0.746822 0.259944 3.47582e-16)
(0.795322 0.27842 -3.48815e-16)
(0.842151 0.296037 1.35777e-15)
(0.885799 0.313164 -0)
(0.925059 0.329507 -0)
(0.959234 0.343955 8.57982e-20)
(0.98748 0.355788 2.5151e-15)
(1.00865 0.365634 -0)
(-0.00856263 0.00283695 -4.84444e-16)
(-0.0217866 -0.0020706 -4.83859e-16)
(-0.0348399 -0.00700891 -3.10757e-19)
(-0.0476282 -0.0119287 -4.31958e-19)
(-0.0600678 -0.0167897 -5.50005e-19)
(-0.0720634 -0.0215771 -6.64199e-19)
(-0.0835443 -0.0262452 -7.73721e-19)
(-0.0944289 -0.0307358 1.90003e-15)
(-0.104649 -0.0350162 4.26159e-15)
(-0.114121 -0.0391111 -4.1516e-20)
(-0.122798 -0.0429631 -0)
(-0.130615 -0.0465096 -1.78221e-20)
(-0.137505 -0.0497418 3.72236e-15)
(-0.143399 -0.0527103 3.70367e-15)
(-0.148258 -0.0553377 -2.30928e-20)
(-0.152015 -0.0575661 -0)
(-0.154599 -0.059406 -5.30441e-20)
(-0.155956 -0.0608801 -3.64089e-15)
(-0.156033 -0.0619371 1.81412e-15)
(-0.154777 -0.0625211 -4.52028e-16)
(-0.152133 -0.0626066 2.24868e-15)
(-0.148039 -0.0622702 -1.34263e-15)
(-0.142472 -0.0614225 1.53231e-18)
(-0.135392 -0.0600179 -3.55298e-15)
(-0.126758 -0.0580555 -4.42204e-16)
(-0.116549 -0.0555886 4.41385e-16)
(-0.10476 -0.0525448 8.79011e-16)
(-0.0913928 -0.0489022 2.18663e-15)
(-0.0764323 -0.0446681 4.36277e-16)
(-0.0598946 -0.0398852 -4.33523e-16)
(-0.0417893 -0.0345102 1.72951e-15)
(-0.0221348 -0.0285465 -0)
(-0.000919837 -0.0220028 -3.68847e-19)
(0.0218308 -0.0148922 -3.88542e-19)
(0.0461286 -0.00719796 1.69692e-15)
(0.0719586 0.00105606 1.68694e-15)
(0.0993444 0.00987191 -2.09791e-15)
(0.128269 0.0192895 4.16988e-15)
(0.158782 0.0292991 1.24318e-15)
(0.190883 0.0398608 1.64587e-15)
(0.224622 0.0509968 3.27138e-15)
(0.259998 0.0628198 -1.6227e-15)
(0.297099 0.0752911 4.01087e-16)
(0.335922 0.0883543 -1.99548e-15)
(0.3765 0.102057 1.58066e-15)
(0.418786 0.116599 1.17467e-15)
(0.462818 0.131892 3.88966e-16)
(0.508462 0.147831 -0)
(0.555565 0.164472 -0)
(0.603836 0.182061 -1.48997e-15)
(0.653014 0.200385 -3.64224e-16)
(0.702537 0.219206 3.64745e-16)
(0.751767 0.23847 -0)
(0.799858 0.258345 -1.40014e-15)
(0.845977 0.278323 5.03778e-19)
(0.888941 0.297849 -0)
(0.927604 0.316584 1.32638e-15)
(0.960804 0.33449 2.58815e-19)
(0.98769 0.350714 -1.27539e-15)
(1.00763 0.364483 3.07591e-16)
(-0.009842 0.00630738 -0)
(-0.0230714 0.00134369 -0)
(-0.0361138 -0.00369742 -0)
(-0.0488639 -0.00877017 -0)
(-0.0612428 -0.0138379 -0)
(-0.0731583 -0.0188582 1.45895e-15)
(-0.0845433 -0.0237833 4.84543e-16)
(-0.0953091 -0.0285783 -2.41361e-15)
(-0.105393 -0.0332065 -1.08078e-18)
(-0.114722 -0.0376501 -1.15542e-18)
(-0.123247 -0.0418617 4.75984e-16)
(-0.130893 -0.0458204 -2.97117e-20)
(-0.137603 -0.0495046 -2.36177e-15)
(-0.143317 -0.052914 -1.36149e-18)
(-0.147992 -0.055989 2.80761e-15)
(-0.151547 -0.0587335 1.39739e-15)
(-0.153925 -0.0611233 2.31966e-15)
(-0.155076 -0.0631456 2.76883e-15)
(-0.154941 -0.0647695 4.59194e-16)
(-0.153468 -0.0659621 -2.28841e-15)
(-0.150593 -0.0667196 -3.6489e-15)
(-0.146284 -0.0670256 -1.36209e-15)
(-0.140493 -0.0668425 -4.52579e-16)
(-0.133188 -0.0661493 4.49046e-16)
(-0.124325 -0.0649345 -0)
(-0.113903 -0.0631855 -1.78579e-15)
(-0.101902 -0.060871 4.06001e-19)
(-0.0883322 -0.0579827 -1.77093e-15)
(-0.0731731 -0.0545157 -0)
(-0.0564641 -0.0504732 2.19604e-15)
(-0.0381946 -0.0458414 -2.18688e-15)
(-0.0183969 -0.0406289 1.7413e-15)
(0.00294938 -0.0348337 1.73364e-15)
(0.0258055 -0.0284654 -6.43896e-19)
(0.0501999 -0.0215211 -0)
(0.0761 -0.0140123 -1.7067e-15)
(0.103541 -0.00592668 -2.12217e-15)
(0.132501 0.00273361 -1.26414e-15)
(0.163038 0.0119732 1.67751e-15)
(0.195134 0.0217857 1.66435e-15)
(0.228854 0.0322058 -0)
(0.264203 0.0432476 3.28021e-15)
(0.301266 0.0549272 -0)
(0.34002 0.0672593 3.22437e-15)
(0.380515 0.0803155 1.59837e-15)
(0.422722 0.0941386 -1.58106e-15)
(0.466663 0.108755 1.56477e-15)
(0.512182 0.124203 -3.83744e-16)
(0.559153 0.14058 1.91124e-15)
(0.607303 0.157934 -1.06671e-18)
(0.656331 0.176253 -0)
(0.70565 0.195513 -0)
(0.754635 0.21573 1.08378e-15)
(0.802467 0.236792 1.77152e-15)
(0.848227 0.25846 -3.42814e-16)
(0.890733 0.2804 1.711e-15)
(0.928789 0.30226 -3.30124e-16)
(0.961282 0.323483 -9.81259e-16)
(0.987286 0.343368 -3.17784e-16)
(1.00607 0.361182 1.58513e-15)
(-0.0111234 0.00976441 -9.9925e-16)
(-0.0243653 0.00472369 -1.95049e-19)
(-0.0373997 -0.000438162 -3.23446e-19)
(-0.0501116 -0.00568967 -4.49415e-19)
(-0.0624348 -0.0109646 1.98142e-15)
(-0.0742639 -0.0162403 -8.74119e-19)
(-0.0855461 -0.0214413 -8.03919e-19)
(-0.0961841 -0.026555 1.95642e-15)
(-0.106131 -0.0315137 -1.95087e-15)
(-0.115305 -0.0363186 -3.39446e-15)
(-0.123664 -0.0409064 -2.41493e-15)
(-0.131131 -0.0452814 -1.92233e-15)
(-0.13766 -0.0493857 -1.91442e-15)
(-0.143184 -0.0532488 -3.3305e-15)
(-0.147662 -0.0567943 -2.36946e-15)
(-0.151011 -0.0600547 -1.41433e-15)
(-0.15319 -0.0629554 -0)
(-0.154129 -0.0655452 -1.86738e-15)
(-0.153787 -0.0677266 -3.72026e-15)
(-0.152097 -0.0695449 -0)
(-0.149015 -0.0709208 1.84346e-15)
(-0.144491 -0.071892 -3.28326e-19)
(-0.138492 -0.0723747 3.73926e-19)
(-0.130978 -0.072395 3.63708e-15)
(-0.121916 -0.0718832 -0)
(-0.111301 -0.0708688 3.60609e-15)
(-0.0991173 -0.0692798 -1.79625e-15)
(-0.0853754 -0.0671404 -0)
(-0.0700652 -0.0644081 -0)
(-0.0532249 -0.0611111 7.10076e-19)
(-0.0348408 -0.0572147 4.41525e-16)
(-0.0149563 -0.0527438 1.09869e-18)
(0.00645699 -0.0476861 9.38809e-20)
(0.0293492 -0.0420536 1.73814e-15)
(0.0537632 -0.0358504 8.65974e-16)
(0.0796469 -0.0290745 3.87049e-15)
(0.107061 -0.0217375 -1.7129e-15)
(0.135955 -0.0138131 4.2432e-16)
(0.166415 -0.00533505 -2.53437e-15)
(0.198389 0.00374384 4.20128e-16)
(0.231988 0.0133899 4.15455e-16)
(0.267169 0.0236886 -1.12344e-18)
(0.304067 0.0345839 -2.7262e-18)
(0.34261 0.0462003 -1.7594e-18)
(0.382921 0.0585013 -1.61211e-15)
(0.424898 0.0716611 1.1913e-15)
(0.468633 0.0856132 3.92972e-16)
(0.513908 0.100583 -1.94762e-15)
(0.560692 0.116529 3.83046e-16)
(0.608615 0.133726 1.13331e-15)
(0.657466 0.152051 3.70569e-16)
(0.706565 0.171782 -6.62125e-18)
(0.755413 0.192738 -3.26487e-15)
(0.803037 0.215135 -0)
(0.848607 0.238553 -2.80219e-15)
(0.890767 0.263009 -1.03532e-15)
(0.928497 0.28776 -1.69271e-15)
(0.960425 0.312581 1.3253e-15)
(0.98572 0.336253 -0)
(1.00345 0.358292 1.16411e-19)
(-0.012415 0.0132402 -0)
(-0.0256863 0.00811969 -0)
(-0.0387199 0.00284483 5.05353e-16)
(-0.0514103 -0.00258307 -5.03614e-16)
(-0.0636755 -0.00806145 -2.5697e-19)
(-0.0754301 -0.0135866 -2.3589e-19)
(-0.0866042 -0.0190584 -1.99228e-15)
(-0.0971206 -0.0244791 -3.96677e-15)
(-0.106922 -0.0297645 -0)
(-0.115939 -0.0349256 1.23536e-19)
(-0.124125 -0.0398847 8.96879e-20)
(-0.131415 -0.0446511 -0)
(-0.137753 -0.049184 3.8695e-15)
(-0.14309 -0.0534768 3.84989e-15)
(-0.147364 -0.057499 1.91519e-15)
(-0.150517 -0.0612404 -0)
(-0.152489 -0.0646797 -1.89635e-15)
(-0.153226 -0.0677997 -1.8871e-15)
(-0.152673 -0.0705752 3.75576e-15)
(-0.15078 -0.0729845 -0)
(-0.147492 -0.0750092 -0)
(-0.14277 -0.0766218 1.85121e-15)
(-0.136571 -0.0778052 -1.84262e-15)
(-0.128863 -0.0785119 -1.83412e-15)
(-0.119619 -0.078746 -1.82634e-15)
(-0.108827 -0.0784461 -1.81745e-15)
(-0.0964801 -0.0776265 -0)
(-0.0825892 -0.0762202 -0)
(-0.0671561 -0.0742685 -0)
(-0.0502067 -0.0717046 -1.78458e-15)
(-0.0317495 -0.0685927 4.44359e-16)
(-0.0118076 -0.0648594 -2.20941e-15)
(0.00962042 -0.0605885 1.31999e-15)
(0.0325143 -0.0556954 -1.31312e-15)
(0.056883 -0.0502853 -2.17488e-15)
(0.082713 -0.0442584 -2.5964e-15)
(0.110021 -0.0377222 3.00946e-15)
(0.138802 -0.0305584 -0)
(0.169091 -0.0228923 4.239e-16)
(0.200896 -0.0145893 -4.22511e-16)
(0.23427 -0.0057704 -0)
(0.269234 0.00373188 -1.66054e-15)
(0.305852 0.0137915 -4.1035e-16)
(0.344137 0.0246146 -1.22204e-15)
(0.384139 0.0361042 -4.02291e-16)
(0.425843 0.0485082 4.01784e-16)
(0.469261 0.0617368 1.85353e-18)
(0.514281 0.0760976 3.86456e-16)
(0.560789 0.0915485 -1.93116e-15)
(0.608521 0.108442 -0)
(0.65716 0.126722 -1.50238e-15)
(0.706153 0.146738 -1.47989e-15)
(0.754885 0.168398 1.45482e-15)
(0.802475 0.191951 -1.43264e-15)
(0.847951 0.217138 1.40658e-15)
(0.890076 0.243907 -0)
(0.927584 0.271725 1.35825e-15)
(0.959198 0.300011 -1.3324e-15)
(0.983898 0.327755 1.30849e-15)
(1.00073 0.353856 -1.28389e-15)
(-0.0137222 0.0167389 -0)
(-0.0270381 0.0115528 -5.13088e-16)
(-0.0400758 0.00613674 5.11472e-16)
(-0.0527521 0.000545205 5.10777e-16)
(-0.0649587 -0.00516356 2.82704e-19)
(-0.0766399 -0.010923 -3.04016e-15)
(-0.0876994 -0.0166912 2.51999e-15)
(-0.0980924 -0.0224014 2.25634e-19)
(-0.107739 -0.0280312 -0)
(-0.116601 -0.033521 3.97402e-15)
(-0.124603 -0.0388671 3.95033e-15)
(-0.131712 -0.0440142 4.92166e-16)
(-0.137857 -0.0489724 -2.44182e-15)
(-0.142999 -0.0536907 -1.45772e-15)
(-0.14707 -0.0581916 -2.41558e-15)
(-0.150025 -0.062413 -4.81767e-16)
(-0.151792 -0.0663833 -1.76114e-18)
(-0.15233 -0.0700359 2.3788e-15)
(-0.151577 -0.0734017 -1.89255e-15)
(-0.149484 -0.0764031 -0)
(-0.146005 -0.0790763 4.69153e-16)
(-0.141091 -0.0813372 1.40004e-15)
(-0.13471 -0.0832191 -0)
(-0.126823 -0.0846303 -0)
(-0.117413 -0.0856002 1.83652e-15)
(-0.106458 -0.0860401 1.82963e-15)
(-0.0939753 -0.0859778 1.36441e-15)
(-0.0799486 -0.0853299 2.26467e-15)
(-0.0644243 -0.0841417 -0)
(-0.0473868 -0.0823471 -0)
(-0.0288952 -0.079995 -0)
(-0.00892173 -0.0770398 1.77732e-15)
(0.0124741 -0.073531 -1.76571e-15)
(0.035338 -0.0694266 2.19661e-15)
(0.0596056 -0.0647789 -3.21602e-19)
(0.0853435 -0.0595588 1.30257e-15)
(0.112484 -0.0537916 -0)
(0.141111 -0.0474532 -0)
(0.171158 -0.040564 1.70498e-15)
(0.202744 -0.0331131 -0)
(0.235811 -0.025085 4.18733e-16)
(0.270503 -0.0164643 -4.17833e-16)
(0.306761 -0.00720415 1.6528e-15)
(0.344743 0.00272314 -0)
(0.384351 0.0134333 4.03317e-16)
(0.425735 0.0249741 -3.87965e-18)
(0.468763 0.0375065 -2.37743e-15)
(0.513506 0.0511257 2.3506e-15)
(0.559693 0.0660908 -3.89255e-16)
(0.607257 0.0825219 -0)
(0.6557 0.100744 1.50355e-15)
(0.704675 0.120871 1.48202e-15)
(0.753347 0.14323 -0)
(0.801072 0.16778 -3.57116e-16)
(0.846623 0.194752 7.05124e-16)
(0.888891 0.223827 -2.08145e-15)
(0.926356 0.254733 -2.71439e-15)
(0.957896 0.286481 6.68862e-16)
(0.98208 0.31844 -9.14331e-18)
(0.998109 0.348743 -1.00373e-17)
(-0.0150566 0.0202937 2.0775e-15)
(-0.0284212 0.0150173 5.19338e-16)
(-0.0414726 0.00946067 -2.58829e-15)
(-0.0541302 0.00367767 5.16783e-16)
(-0.0662849 -0.00225507 2.37779e-19)
(-0.0778813 -0.00827907 -5.11993e-16)
(-0.0888302 -0.014328 -2.03794e-15)
(-0.0990847 -0.0203574 2.67024e-19)
(-0.108579 -0.0263114 -0)
(-0.117266 -0.0321614 -2.00666e-15)
(-0.125089 -0.0378706 -2.49293e-15)
(-0.132004 -0.0434186 9.91829e-16)
(-0.137956 -0.0487838 -4.92064e-16)
(-0.142895 -0.0539547 -0)
(-0.146772 -0.0589065 -9.39222e-20)
(-0.149521 -0.0636301 -0)
(-0.151097 -0.0681086 3.85264e-15)
(-0.151433 -0.0723221 -0)
(-0.150491 -0.0762541 -0)
(-0.148206 -0.0798771 1.89597e-15)
(-0.144548 -0.0831744 -0)
(-0.139454 -0.0861151 -2.34474e-15)
(-0.132909 -0.0886759 9.32106e-16)
(-0.124853 -0.0908147 1.85753e-15)
(-0.115299 -0.0925102 1.84673e-15)
(-0.104196 -0.093708 2.20642e-18)
(-0.0915943 -0.0943942 -2.28161e-15)
(-0.0774573 -0.0945196 -1.81761e-15)
(-0.0618567 -0.0940867 -0)
(-0.0447624 -0.0930652 4.50276e-16)
(-0.0262557 -0.0914745 1.3432e-15)
(-0.00629105 -0.0892925 -1.33518e-15)
(0.0150527 -0.0865524 -4.42526e-16)
(0.0378366 -0.0832248 2.20319e-15)
(0.0619817 -0.0793577 -2.18936e-15)
(0.0875698 -0.0749237 1.74238e-15)
(0.11452 -0.0699548 1.73057e-15)
(0.142926 -0.064409 1.72057e-15)
(0.172703 -0.0583225 2.06086e-18)
(0.203982 -0.0516553 1.69673e-15)
(0.236709 -0.0444493 -0)
(0.271033 -0.0366349 -0)
(0.306898 -0.0282273 -1.65251e-15)
(0.344472 -0.0191178 -0)
(0.383681 -0.00927483 4.03735e-16)
(0.424786 0.00147284 -4.03505e-16)
(0.467553 0.013207 -0)
(0.512033 0.0261662 -1.57175e-15)
(0.557965 0.0405097 -0)
(0.605256 0.0565512 -0)
(0.653425 0.0744997 -1.88082e-15)
(0.702216 0.0947352 -1.11128e-15)
(0.75103 0.117513 -1.46126e-15)
(0.798972 0.143121 -2.50953e-18)
(0.844864 0.171626 -0)
(0.887442 0.203055 2.77734e-15)
(0.925142 0.236883 1.36252e-15)
(0.956659 0.272478 -1.34098e-15)
(0.980559 0.308534 -2.63175e-15)
(0.995745 0.343419 -0)
(-0.016424 0.0239181 -4.72792e-15)
(-0.0298437 0.0185482 -2.09991e-15)
(-0.0429163 0.0128412 4.84193e-19)
(-0.0555595 0.00686151 -0)
(-0.0676627 0.000695009 -4.15759e-15)
(-0.0791706 -0.00559762 -2.07017e-15)
(-0.0900037 -0.0119371 2.0586e-15)
(-0.100119 -0.0182772 2.04834e-15)
(-0.109451 -0.0245633 -0)
(-0.117963 -0.0307648 2.02382e-15)
(-0.125598 -0.0368471 -0)
(-0.132319 -0.0427893 1.99938e-15)
(-0.138074 -0.048565 -0)
(-0.142817 -0.0541687 -0)
(-0.146494 -0.0595854 3.43166e-15)
(-0.14905 -0.0648012 4.86885e-16)
(-0.150431 -0.0698003 -1.93752e-15)
(-0.150579 -0.0745653 -1.92748e-15)
(-0.149455 -0.0790779 4.79492e-16)
(-0.146991 -0.083313 -1.90282e-15)
(-0.143165 -0.0872547 1.42049e-15)
(-0.137906 -0.0908664 -4.71498e-16)
(-0.131209 -0.0941303 4.66991e-16)
(-0.123003 -0.0969943 -2.32759e-15)
(-0.113312 -0.0994348 -1.38805e-15)
(-0.102082 -0.101393 -1.84103e-15)
(-0.0893695 -0.102846 -0)
(-0.0751404 -0.103743 -0)
(-0.0594768 -0.104082 1.81194e-15)
(-0.0423436 -0.103833 -1.35259e-15)
(-0.023839 -0.103014 -2.23906e-15)
(-0.00390557 -0.101608 2.2305e-15)
(0.0173663 -0.0996483 -4.42998e-16)
(0.0400464 -0.0971016 1.90108e-18)
(0.0640368 -0.0940077 3.50422e-15)
(0.0894362 -0.0903353 -2.17686e-15)
(0.116157 -0.0861336 -8.64344e-16)
(0.144308 -0.0813632 -2.14963e-15)
(0.173867 -0.0760904 -1.70691e-15)
(0.205003 -0.0702621 -2.12065e-15)
(0.237575 -0.0638884 1.98144e-18)
(0.271757 -0.0569062 -1.25577e-15)
(0.307477 -0.0493319 1.6608e-15)
(0.344923 -0.0410534 4.09854e-16)
(0.384013 -0.0320414 1.62744e-15)
(0.424909 -0.0221115 -1.61918e-15)
(0.467469 -0.0111478 7.99332e-16)
(0.511805 0.00111544 1.5803e-15)
(0.557659 0.0148755 -1.16621e-15)
(0.60498 0.0304994 -0)
(0.65329 0.0482431 1.51091e-15)
(0.70223 0.0685573 1.11948e-15)
(0.750939 0.0917467 1.83283e-15)
(0.798627 0.118226 -2.93365e-18)
(0.844054 0.148068 -1.41491e-15)
(0.886069 0.181367 -1.38717e-15)
(0.924292 0.218077 -1.70066e-15)
(0.956032 0.257388 3.38429e-16)
(0.979753 0.297798 -9.97712e-19)
(0.994155 0.33738 -3.18695e-16)
(-0.0178283 0.0276288 5.8042e-19)
(-0.0313129 0.0221581 5.71245e-19)
(-0.0444128 0.0162922 2.11576e-15)
(-0.0570425 0.0101048 2.10915e-15)
(-0.0690909 0.00369212 2.09909e-15)
(-0.0805101 -0.00287454 2.08968e-15)
(-0.091219 -0.00951188 2.07625e-15)
(-0.101188 -0.0161712 2.06533e-15)
(-0.11035 -0.0227965 -0)
(-0.118682 -0.0293517 -2.03962e-15)
(-0.126126 -0.0358029 -2.53168e-15)
(-0.132653 -0.0421311 -4.02699e-15)
(-0.138209 -0.0483235 -1.49941e-15)
(-0.142754 -0.0543651 -0)
(-0.146238 -0.0602463 1.1932e-19)
(-0.148602 -0.0659539 -0)
(-0.149801 -0.0714777 -0)
(-0.149768 -0.0767948 1.45059e-15)
(-0.148472 -0.0818952 2.40203e-15)
(-0.145842 -0.086747 4.78673e-16)
(-0.14186 -0.0913384 2.3233e-18)
(-0.136452 -0.0956305 -4.7121e-16)
(-0.129615 -0.0996036 -0)
(-0.121277 -0.103203 -0)
(-0.111462 -0.106399 -0)
(-0.100118 -0.109126 -0)
(-0.0873065 -0.111355 -4.58741e-16)
(-0.0729951 -0.113027 -1.07416e-18)
(-0.0572821 -0.114143 9.07766e-16)
(-0.0401227 -0.114668 1.35243e-15)
(-0.0216347 -0.114622 -0)
(-0.0017584 -0.113969 -1.33685e-15)
(0.0194098 -0.112747 -8.86188e-16)
(0.0419603 -0.110934 -1.76232e-15)
(0.0658175 -0.108633 -1.31338e-15)
(0.0911323 -0.105809 1.74638e-15)
(0.117775 -0.102447 -0)
(0.145875 -0.0985087 4.30976e-16)
(0.175324 -0.0940419 -4.29292e-16)
(0.206258 -0.0889978 -2.13172e-15)
(0.238589 -0.0834218 4.23902e-16)
(0.272512 -0.0772498 1.67907e-15)
(0.307949 -0.0705022 3.106e-18)
(0.345114 -0.0630633 4.11472e-16)
(0.383924 -0.0548967 -2.45173e-15)
(0.424578 -0.0458061 3.24403e-15)
(0.466935 -0.0356568 -1.19717e-15)
(0.511145 -0.0241445 -1.58503e-15)
(0.556956 -0.0110345 -3.63584e-18)
(0.604367 0.00409252 -0)
(0.652873 0.0216037 1.52015e-15)
(0.702209 0.0419748 1.49764e-15)
(0.751462 0.0656527 -0)
(0.799885 0.0931118 1.44418e-15)
(0.846103 0.124581 1.76754e-15)
(0.888744 0.160106 1.38556e-15)
(0.925908 0.199406 2.38504e-15)
(0.956108 0.24174 1.33899e-15)
(0.979936 0.286422 1.63977e-15)
(0.993619 0.33087 1.2855e-15)
(-0.0192763 0.0314446 6.54301e-19)
(-0.0328375 0.025866 4.28485e-15)
(-0.0459675 0.0198283 -0)
(-0.0585848 0.0134197 -2.12867e-15)
(-0.0705747 0.0067489 -0)
(-0.081899 -0.000102079 2.10652e-15)
(-0.0924756 -0.00705013 -4.52703e-19)
(-0.102292 -0.014031 -2.0809e-15)
(-0.111281 -0.0209934 -1.54833e-15)
(-0.119426 -0.0279043 -5.12565e-16)
(-0.126676 -0.0347288 2.03718e-15)
(-0.133003 -0.0414525 2.53096e-15)
(-0.138363 -0.0480573 1.00431e-15)
(-0.142714 -0.0545371 4.98211e-16)
(-0.146009 -0.0608842 -2.47664e-15)
(-0.14819 -0.0670874 4.91255e-16)
(-0.149211 -0.0731383 -0)
(-0.14901 -0.0790148 -0)
(-0.147552 -0.0847045 -1.92714e-15)
(-0.144772 -0.0901808 -4.79838e-16)
(-0.140647 -0.0954277 -9.50783e-16)
(-0.135107 -0.100409 -4.71998e-16)
(-0.128144 -0.105101 -0)
(-0.119688 -0.109448 -0)
(-0.109762 -0.113409 -0)
(-0.0983127 -0.116912 1.84585e-15)
(-0.0854126 -0.119925 -0)
(-0.0710273 -0.122377 -9.11657e-16)
(-0.0552776 -0.12426 -3.1698e-15)
(-0.0381168 -0.125514 -1.35372e-15)
(-0.0196646 -0.126178 -0)
(0.000139421 -0.126329 -0)
(0.0212345 -0.125978 4.43947e-16)
(0.0437445 -0.125029 1.32784e-15)
(0.0675558 -0.123534 4.39624e-16)
(0.0927773 -0.121459 -2.18835e-15)
(0.119285 -0.118856 -4.3486e-16)
(0.147225 -0.115682 8.66108e-16)
(0.176479 -0.111995 -1.30022e-18)
(0.207202 -0.107751 1.28111e-15)
(0.239287 -0.102991 -0)
(0.272948 -0.09765 -0)
(0.308098 -0.0917541 -1.25367e-15)
(0.344981 -0.0851819 -4.15989e-16)
(0.383511 -0.0778931 -2.05219e-15)
(0.423925 -0.0696766 -1.6203e-15)
(0.46609 -0.0603864 -1.20528e-15)
(0.510197 -0.0496803 -4.00617e-18)
(0.556003 -0.0372917 1.1765e-15)
(0.603556 -0.0227323 7.73318e-16)
(0.652373 -0.00558677 -3.80886e-15)
(0.702199 0.014768 -2.25187e-15)
(0.752158 0.0388418 -1.8499e-15)
(0.801481 0.0672547 3.58613e-16)
(0.8487 0.100385 -1.7856e-15)
(0.892375 0.138379 -1.05156e-15)
(0.930446 0.180908 -2.74966e-15)
(0.961116 0.227033 6.73199e-16)
(0.982225 0.275341 1.65164e-15)
(0.994289 0.324238 -9.7627e-16)
(-0.0207764 0.0353859 7.30617e-19)
(-0.0344221 0.0296881 -2.70177e-15)
(-0.0475872 0.0234631 -3.80911e-19)
(-0.0601913 0.0168175 2.68174e-15)
(-0.0721174 0.00987425 -0)
(-0.0833385 0.00272605 -2.65365e-15)
(-0.09378 -0.00453408 -3.68805e-15)
(-0.103433 -0.011847 -1.56969e-15)
(-0.112241 -0.0191551 1.55902e-15)
(-0.120195 -0.0264251 5.16637e-16)
(-0.127246 -0.033625 -2.55834e-15)
(-0.133377 -0.0407406 -0)
(-0.138539 -0.0477611 -0)
(-0.142702 -0.0546812 -0)
(-0.145813 -0.0614966 -0)
(-0.14782 -0.0681998 -0)
(-0.148674 -0.0747801 1.95865e-15)
(-0.148315 -0.08122 -4.87311e-16)
(-0.146709 -0.0875069 -1.74134e-18)
(-0.14379 -0.0936129 2.39787e-15)
(-0.13954 -0.0995234 1.90479e-15)
(-0.133881 -0.105202 -4.74032e-16)
(-0.12681 -0.110623 4.68936e-16)
(-0.118248 -0.115724 4.6777e-16)
(-0.108222 -0.120465 -4.6296e-16)
(-0.0966766 -0.124755 -1.38197e-15)
(-0.0837029 -0.128533 9.1695e-16)
(-0.0692629 -0.13171 9.09247e-16)
(-0.0535127 -0.134343 1.36001e-15)
(-0.0364223 -0.136497 1.80422e-15)
(-0.0180159 -0.138054 -1.79794e-15)
(0.00178676 -0.138991 2.23953e-15)
(0.0228576 -0.139369 -4.45217e-16)
(0.0453158 -0.139161 -1.77347e-15)
(0.0690437 -0.138426 1.76663e-15)
(0.0941687 -0.13713 -4.39089e-16)
(0.120549 -0.135311 2.18573e-15)
(0.148339 -0.132924 -0)
(0.177401 -0.130029 4.31008e-16)
(0.207911 -0.126579 -1.5779e-18)
(0.239746 -0.122628 -1.9028e-18)
(0.273139 -0.118115 -4.2414e-16)
(0.307996 -0.11307 4.18048e-16)
(0.344596 -0.107374 1.24888e-15)
(0.382842 -0.10098 1.64556e-15)
(0.423023 -0.0936665 -1.63399e-15)
(0.464998 -0.0852618 1.61079e-15)
(0.509028 -0.0754147 2.79354e-15)
(0.554864 -0.0638082 3.95823e-16)
(0.602615 -0.049899 3.85256e-16)
(0.651827 -0.0332081 7.62761e-16)
(0.702278 -0.0129982 3.39298e-15)
(0.753109 0.0113301 -4.46729e-18)
(0.803533 0.0405875 -0)
(0.85202 0.0752695 -3.99149e-18)
(0.897009 0.115718 -0)
(0.936227 0.161673 -3.04252e-18)
(0.967577 0.212276 -2.6968e-15)
(0.988887 0.265469 -2.64184e-15)
(0.998058 0.318603 -0)
(-0.0223383 0.0394746 -1.08921e-15)
(-0.036079 0.0336477 2.17701e-15)
(-0.0492827 0.0272188 -3.91011e-19)
(-0.0618735 0.0203274 -2.16199e-15)
(-0.0737286 0.0130928 -6.84772e-19)
(-0.0848414 0.00564412 5.33553e-16)
(-0.0951338 -0.00194869 5.55352e-19)
(-0.104621 -0.00958889 1.57868e-15)
(-0.113238 -0.017257 -1.18671e-18)
(-0.121001 -0.0248744 2.07163e-15)
(-0.127847 -0.0324644 2.56883e-15)
(-0.133783 -0.03996 5.10918e-16)
(-0.138749 -0.0474114 -5.05076e-16)
(-0.142732 -0.0547559 -0)
(-0.145664 -0.0620592 1.99199e-15)
(-0.147511 -0.0692457 -0)
(-0.148205 -0.0763808 -1.9614e-15)
(-0.147704 -0.0833711 -0)
(-0.14596 -0.0902789 -0)
(-0.142922 -0.0970012 -3.83966e-15)
(-0.138556 -0.103601 -1.42737e-15)
(-0.1328 -0.109967 -2.36564e-15)
(-0.125631 -0.116146 -4.70449e-16)
(-0.11698 -0.122001 4.65934e-16)
(-0.106869 -0.12752 -3.24435e-15)
(-0.0952498 -0.132521 -4.59916e-16)
(-0.0823062 -0.137159 4.60457e-16)
(-0.0679475 -0.141272 -4.57791e-16)
(-0.0522038 -0.144796 -1.81618e-15)
(-0.0350458 -0.147659 -1.81229e-15)
(-0.0166061 -0.149953 1.80142e-15)
(0.00320417 -0.151637 -3.59262e-15)
(0.024256 -0.152789 -0)
(0.0466742 -0.153355 -4.45102e-16)
(0.0703267 -0.153399 -1.32671e-15)
(0.0953596 -0.152884 4.4054e-16)
(0.121612 -0.151842 2.6768e-18)
(0.149259 -0.150247 -4.36442e-16)
(0.178132 -0.148125 1.73461e-15)
(0.208438 -0.145479 -4.29842e-16)
(0.240015 -0.142316 1.86865e-18)
(0.273151 -0.138649 4.25614e-16)
(0.307706 -0.134434 -0)
(0.34403 -0.12965 -1.25224e-15)
(0.381986 -0.124138 -1.6593e-15)
(0.421949 -0.117789 1.22447e-15)
(0.463747 -0.110291 -0)
(0.507738 -0.101413 -1.20069e-15)
(0.553625 -0.0906217 -5.16816e-18)
(0.601664 -0.0775262 1.16905e-15)
(0.651324 -0.0613407 -1.53773e-15)
(0.702563 -0.0414901 -1.13528e-15)
(0.754378 -0.0169256 -1.23801e-17)
(0.806161 0.0129641 -3.69183e-16)
(0.85614 0.0491938 -4.4574e-18)
(0.9028 0.091969 3.47034e-16)
(0.943441 0.141519 1.36742e-15)
(0.975854 0.196555 1.00792e-15)
(0.997298 0.255326 1.32376e-15)
(1.00577 0.314226 -0)
(-0.023973 0.0437218 4.39078e-15)
(-0.0378027 0.037749 -2.19188e-15)
(-0.0510574 0.0310825 -0)
(-0.0636138 0.0239184 -0)
(-0.0754021 0.0163707 -0)
(-0.0863783 0.00859273 -2.68256e-15)
(-0.0965271 0.000663551 3.19549e-15)
(-0.10582 -0.00733426 -3.16995e-15)
(-0.114255 -0.0153518 5.23518e-16)
(-0.121801 -0.0233551 -3.57035e-19)
(-0.128457 -0.031312 -0)
(-0.134182 -0.0392276 -5.11964e-16)
(-0.13897 -0.0470776 5.06202e-16)
(-0.142763 -0.054895 5.0365e-16)
(-0.145539 -0.0626468 -2.99228e-15)
(-0.14722 -0.0703736 4.93851e-16)
(-0.14778 -0.0780192 -0)
(-0.147137 -0.0856183 -4.87868e-16)
(-0.145279 -0.0930978 4.82333e-16)
(-0.142126 -0.100501 -8.29848e-19)
(-0.13767 -0.107736 -0)
(-0.131828 -0.114858 1.88984e-15)
(-0.124588 -0.121721 2.34764e-15)
(-0.115874 -0.128324 1.39942e-15)
(-0.105846 -0.134664 3.70586e-15)
(-0.0943692 -0.140696 4.62124e-16)
(-0.08139 -0.146135 -4.56773e-16)
(-0.0669351 -0.151033 1.82925e-15)
(-0.0510862 -0.155261 -0)
(-0.0338744 -0.158929 1.81437e-15)
(-0.0153698 -0.161938 -1.8096e-15)
(0.00442592 -0.164417 1.7994e-15)
(0.0254844 -0.166282 -0)
(0.047824 -0.167644 -0)
(0.0714358 -0.168413 -1.77838e-15)
(0.0963324 -0.168688 -0)
(0.122504 -0.168377 -1.75698e-15)
(0.149957 -0.167565 1.75099e-15)
(0.178696 -0.166179 -2.17087e-15)
(0.208734 -0.16431 -1.29733e-15)
(0.24012 -0.161906 -0)
(0.272917 -0.159043 -1.70595e-15)
(0.307238 -0.155652 -0)
(0.343192 -0.151733 -0)
(0.380936 -0.147129 2.90734e-15)
(0.420586 -0.141704 3.72822e-18)
(0.462305 -0.13518 4.08353e-16)
(0.506148 -0.127209 -0)
(0.552229 -0.117362 -0)
(0.60047 -0.105045 -3.12917e-15)
(0.650777 -0.0895616 1.53897e-15)
(0.702755 -0.0700365 -0)
(0.755867 -0.0455362 1.48983e-15)
(0.809061 -0.0149696 -0)
(0.860964 0.0225504 1.43686e-15)
(0.909451 0.0678366 -0)
(0.952028 0.12085 -0)
(0.985635 0.180885 -0)
(1.00753 0.24546 -0)
(1.01497 0.31107 -0)
(-0.0256854 0.0481703 -4.4179e-15)
(-0.0396251 0.0420137 2.47983e-15)
(-0.052926 0.0351354 -2.74478e-16)
(-0.0654556 0.0276548 2.18463e-15)
(-0.0771607 0.019813 -0)
(-0.0880042 0.011677 2.15584e-15)
(-0.097988 0.0034256 -2.13815e-15)
(-0.107094 -0.00494507 1.85568e-15)
(-0.11533 -0.0133012 5.25694e-16)
(-0.122672 -0.0216931 -2.34485e-15)
(-0.129124 -0.0300134 2.58652e-16)
(-0.134655 -0.038343 -5.12101e-16)
(-0.139257 -0.0465975 2.53435e-16)
(-0.142882 -0.0548731 -0)
(-0.145501 -0.0630902 -0)
(-0.14704 -0.0713374 -1.97964e-15)
(-0.147467 -0.079521 -0)
(-0.146706 -0.0877048 -0)
(-0.144741 -0.0957959 2.41951e-16)
(-0.141494 -0.103847 -2.4004e-16)
(-0.136962 -0.111758 -0)
(-0.131065 -0.119534 -1.88868e-15)
(-0.123927 -0.127204 -3.98819e-15)
(-0.115445 -0.13478 -1.63403e-15)
(-0.105423 -0.141992 -0)
(-0.0938385 -0.148789 -0)
(-0.0807317 -0.155059 -3.45591e-15)
(-0.0661518 -0.160741 6.41172e-19)
(-0.0501885 -0.165786 -2.28231e-16)
(-0.0328996 -0.17019 -2.27846e-16)
(-0.0143423 -0.17399 3.85398e-15)
(0.00546391 -0.177189 -0)
(0.0265117 -0.179851 -0)
(0.048804 -0.181934 -0)
(0.0723548 -0.183513 2.0036e-15)
(0.0971583 -0.184507 -1.99762e-15)
(0.123226 -0.185012 -2.20422e-16)
(0.150539 -0.184911 -1.53368e-15)
(0.179115 -0.18434 1.74726e-15)
(0.20895 -0.183175 3.4687e-15)
(0.240104 -0.181607 -2.14851e-16)
(0.272625 -0.179481 1.92238e-15)
(0.306659 -0.176997 -0)
(0.342307 -0.173892 1.89497e-15)
(0.379784 -0.170299 -3.33644e-15)
(0.419203 -0.165783 -2.07196e-16)
(0.460775 -0.160343 -1.6357e-15)
(0.504604 -0.153347 1.61654e-15)
(0.550822 -0.144608 -1.59615e-15)
(0.599411 -0.13315 1.37365e-15)
(0.650361 -0.118582 -1.35664e-15)
(0.703298 -0.099531 -0)
(0.757773 -0.0753276 -1.50211e-15)
(0.812713 -0.0442691 1.2936e-15)
(0.866746 -0.00565317 -1.26518e-15)
(0.917549 0.0420202 -0)
(0.962373 0.0985775 -0)
(0.997666 0.163736 -0)
(1.02018 0.234568 -0)
(1.02678 0.307275 -0)
(-0.0274652 0.0527953 -2.7638e-16)
(-0.0415469 0.0464731 -1.93952e-15)
(-0.0548753 0.0393029 2.75836e-16)
(-0.067389 0.0315229 -4.66379e-15)
(-0.0789743 0.0233045 -0)
(-0.0896898 0.0148421 2.16269e-15)
(-0.0994745 0.00619174 7.20995e-19)
(-0.108401 -0.00250636 -0)
(-0.116409 -0.0112785 -0)
(-0.123559 -0.0200038 1.82641e-15)
(-0.129786 -0.0287631 2.58098e-16)
(-0.13514 -0.0374452 -0)
(-0.139545 -0.0461773 -0)
(-0.143026 -0.0548488 -0)
(-0.14548 -0.0636059 -0)
(-0.146905 -0.0723133 -3.21338e-19)
(-0.147196 -0.0811109 -0)
(-0.146341 -0.089821 -1.70227e-15)
(-0.144271 -0.0985914 -1.92801e-15)
(-0.140964 -0.107193 1.91487e-15)
(-0.136469 -0.115825 -2.37505e-15)
(-0.130886 -0.124455 3.54496e-15)
(-0.123862 -0.133023 2.34964e-15)
(-0.115312 -0.141309 -1.87423e-15)
(-0.105202 -0.149403 -0)
(-0.0934843 -0.157005 2.32449e-16)
(-0.0802525 -0.164155 -1.56333e-18)
(-0.0655211 -0.170602 6.68191e-19)
(-0.049462 -0.176455 5.95079e-19)
(-0.0320652 -0.181577 -2.05605e-15)
(-0.0134893 -0.186139 -1.8167e-15)
(0.00636214 -0.190054 -0)
(0.0273547 -0.193463 -0)
(0.0496443 -0.196283 -0)
(0.0730813 -0.1986 -0)
(0.0978502 -0.200349 1.77835e-15)
(0.123754 -0.201574 -0)
(0.150999 -0.202235 1.7642e-15)
(0.179349 -0.202354 -3.28328e-15)
(0.209059 -0.201959 -1.95703e-15)
(0.239895 -0.201068 -1.73142e-15)
(0.272222 -0.199769 1.72044e-15)
(0.305861 -0.198012 -0)
(0.3413 -0.195861 2.15998e-16)
(0.378388 -0.193089 -7.23941e-18)
(0.417673 -0.189665 -2.08179e-16)
(0.458993 -0.185142 1.63675e-15)
(0.502898 -0.179337 2.07663e-16)
(0.549125 -0.17147 -8.86295e-18)
(0.598234 -0.161216 -1.98814e-16)
(0.649718 -0.14736 -6.52715e-18)
(0.703864 -0.129226 1.89759e-16)
(0.759671 -0.105115 -1.02653e-17)
(0.81674 -0.0740829 -1.66403e-15)
(0.87301 -0.0341047 1.26934e-15)
(0.926692 0.0155148 1.8029e-16)
(0.974058 0.0760379 -0)
(1.01163 0.146203 -0)
(1.03489 0.224235 -0)
(1.04077 0.304331 -1.60719e-16)
(-0.0293582 0.0576594 4.73652e-15)
(-0.043562 0.0511404 -2.22317e-15)
(-0.0569501 0.0436558 1.66014e-15)