/*--------------------------------*- C++ -*----------------------------------*\
| =========                 |                                                 |
| \\      /  F ield         | OpenFOAM: The Open Source CFD Toolbox           |
|  \\    /   O peration     | Version:  5.0                                   |
|   \\  /    A nd           | Web:      www.OpenFOAM.org                      |
|    \\/     M anipulation  |                                                 |
\*---------------------------------------------------------------------------*/
FoamFile {
  version     2.0;
  format      ascii;
  class       volScalarField;
  location    "0";
  object      p;
}
// * * * * * * * * * * * * * * * * * * * * * * * * * * * * * * * * * * * * * //

dimensions      [0 0 1 0 0 0 0];

internalField   uniform 101325;

boundaryField {
  top
  {
    type        boundaryMapping;
    mappingType constant;
    mappingFileName "constant/porousMat/BoundaryConditions";
    mappingFields
    (
        (p "1")
    );
    value uniform 101325;
  }
  bottom
  {
    type zeroGradient;
  }
  subMat1_to_porousMat
  {
    type zeroGradient;
  }
  wedge_pos
  {
    type            wedge;
  }
  wedge_neg
  {
    type            wedge;
  }
  axis
  {
    type            empty;
  }
}


// ************************************************************************* //
